! TOUCHSTONE file generated by CST MICROWAVE STUDIO
! Date and time: Mon Sep 28 11:50:39 2020
! Project name: Gustave Lung Lower Right.cst
! Header version: 2018
! Port assignment regex: !\s*Touchstone port\s*([0-9]+)\s*=\s*(CST MWS port|CST DS port)\s*([0-9]+|Zmin|Zmax)\s*\(\"(.*)\"\)(\s*mode\s*([0-9]+))?.*
! Touchstone port assignment:
! Touchstone port 1 = CST MWS port 1 ("")
! Touchstone port 2 = CST MWS port 2 ("")
! Touchstone port 3 = CST MWS port 3 ("")
# GHz S RI R 50
5                       0.794636      -0.0113276       0.00507837     -0.00492445     -0.000369873    -0.000617831
                      0.00506837     -0.00488122          0.79618      -0.0469973     -0.000413095    -0.000500162
                    -0.000351541    -0.000653382     -0.000419985    -0.000491725         0.710816       -0.160318
5.001                   0.794707      -0.0113109       0.00500347     -0.00498738      -0.00038243    -0.000611615
                      0.00499627     -0.00494399         0.796008      -0.0469394     -0.000423001    -0.000492914
                    -0.000366464     -0.00064804     -0.000429314    -0.000484125         0.709062        -0.16005
5.002                   0.794777      -0.0112963       0.00492793     -0.00504903     -0.000394923    -0.000605134
                      0.00492351     -0.00500565         0.795836      -0.0468815      -0.00043283    -0.000485387
                    -0.000381359     -0.00064228     -0.000438549    -0.000476284         0.707298       -0.159761
5.003                   0.794846      -0.0112838       0.00485178     -0.00510939     -0.000407346    -0.000598385
                      0.00485011     -0.00506621         0.795666      -0.0468237      -0.00044257    -0.000477576
                    -0.000396212    -0.000636097     -0.000447681    -0.000468199         0.705522       -0.159451
5.004                   0.794915      -0.0112734       0.00477505     -0.00516848     -0.000419695    -0.000591368
                      0.00477609     -0.00512565         0.795497      -0.0467661     -0.000452211    -0.000469481
                    -0.000411009     -0.00062949     -0.000456701    -0.000459869         0.703736       -0.159118
5.005                   0.794983       -0.011265       0.00469778     -0.00522629     -0.000431965    -0.000584081
                      0.00470147     -0.00518398         0.795329      -0.0467087     -0.000461738    -0.000461098
                    -0.000425734    -0.000622457     -0.000465599    -0.000451291          0.70194       -0.158763
5.006                    0.79505      -0.0112586          0.00462     -0.00528282     -0.000444151    -0.000576521
                      0.00462628     -0.00524119         0.795162      -0.0466515     -0.000471142    -0.000452426
                    -0.000440374    -0.000614998     -0.000474366    -0.000442464         0.700134       -0.158385
5.007                   0.795116      -0.0112542       0.00454172     -0.00533809     -0.000456247    -0.000568689
                      0.00455053      -0.0052973         0.794996      -0.0465946     -0.000480408    -0.000443465
                    -0.000454913    -0.000607111     -0.000482992    -0.000433388         0.698318       -0.157984
5.008                   0.795182      -0.0112518         0.004463     -0.00539211     -0.000468248    -0.000560582
                      0.00447425     -0.00535229         0.794832       -0.046538     -0.000489524    -0.000434214
                    -0.000469337    -0.000598796     -0.000491466    -0.000424063         0.696492       -0.157559
5.009                   0.795247      -0.0112513       0.00438385     -0.00544487     -0.000480148    -0.000552198
                      0.00439746     -0.00540618         0.794669      -0.0464817     -0.000498478    -0.000424675
                    -0.000483629    -0.000590056     -0.000499777    -0.000414489         0.694657        -0.15711
5.01                    0.795311      -0.0112528        0.0043043      -0.0054964     -0.000491943    -0.000543536
                      0.00432018     -0.00545896         0.794506      -0.0464257     -0.000507255    -0.000414847
                    -0.000497776     -0.00058089     -0.000507916    -0.000404667         0.692813       -0.156636
5.011                   0.795374      -0.0112561       0.00422438     -0.00554669     -0.000503624    -0.000534594
                      0.00424242     -0.00551063         0.794345      -0.0463702     -0.000515843    -0.000404734
                    -0.000511763      -0.0005713      -0.00051587    -0.000394598         0.690961       -0.156137
5.012                   0.795436      -0.0112613       0.00414412     -0.00559576     -0.000515186    -0.000525371
                      0.00416421     -0.00556121         0.794185       -0.046315     -0.000524228    -0.000394337
                    -0.000525573     -0.00056129      -0.00052363    -0.000384285         0.689099       -0.155612
5.013                   0.795497      -0.0112683       0.00406353     -0.00564363     -0.000526623    -0.000515866
                      0.00408556     -0.00561068         0.794026      -0.0462603     -0.000532397    -0.000383661
                    -0.000539193    -0.000550862     -0.000531183     -0.00037373          0.68723       -0.155061
5.014                   0.795557      -0.0112771       0.00398265      -0.0056903     -0.000537928    -0.000506077
                       0.0040065     -0.00565907         0.793868       -0.046206     -0.000540336    -0.000372709
                    -0.000552608    -0.000540019     -0.000538519    -0.000362936         0.685354       -0.154484
5.015                   0.795615      -0.0112877        0.0039015     -0.00573579     -0.000549093    -0.000496003
                      0.00392704     -0.00570637          0.79371      -0.0461522     -0.000548032    -0.000361487
                    -0.000565802    -0.000528767     -0.000545626    -0.000351907          0.68347       -0.153879
5.016                   0.795673         -0.0113        0.0038201     -0.00578011     -0.000560111    -0.000485643
                       0.0038472     -0.00575259         0.793554       -0.046099     -0.000555471    -0.000349999
                    -0.000578761    -0.000517108     -0.000552493    -0.000340648         0.681579       -0.153248
5.017                    0.79573       -0.011314       0.00373846     -0.00582328     -0.000570975    -0.000474996
                        0.003767     -0.00579774         0.793399      -0.0460462     -0.000562639    -0.000338253
                    -0.000591471    -0.000505051     -0.000559108    -0.000329163         0.679681       -0.152588
5.018                   0.795785      -0.0113296       0.00365662     -0.00586532     -0.000581676    -0.000464061
                      0.00368644     -0.00584181         0.793244      -0.0459941     -0.000569525    -0.000326255
                    -0.000603917    -0.000492598     -0.000565461     -0.00031746         0.677777         -0.1519
5.019                   0.795839      -0.0113469       0.00357458     -0.00590623     -0.000592207    -0.000452838
                      0.00360556     -0.00588482          0.79309      -0.0459425     -0.000576115    -0.000314013
                    -0.000616085    -0.000479758     -0.000571541    -0.000305542         0.675868       -0.151184
5.02                    0.795892      -0.0113658       0.00349236     -0.00594604     -0.000602559    -0.000441326
                      0.00352435     -0.00592678         0.792937      -0.0458915     -0.000582396    -0.000301537
                    -0.000627961    -0.000466538     -0.000577335    -0.000293419         0.673953       -0.150438
5.021                   0.795944      -0.0113862       0.00340998     -0.00598476     -0.000612724    -0.000429525
                      0.00344284     -0.00596769         0.792785      -0.0458411     -0.000588356    -0.000288834
                    -0.000639531    -0.000452944     -0.000582834    -0.000281097         0.672033       -0.149663
5.022                   0.795995      -0.0114082       0.00332746     -0.00602241     -0.000622692    -0.000417434
                      0.00336104     -0.00600756         0.792634      -0.0457913     -0.000593982    -0.000275916
                    -0.000650782    -0.000438984     -0.000588027    -0.000268585         0.670109       -0.148858
5.023                   0.796044      -0.0114316       0.00324481     -0.00605901     -0.000632455    -0.000405055
                      0.00327896      -0.0060464         0.792483      -0.0457423     -0.000599264    -0.000262793
                    -0.000661701    -0.000424668     -0.000592904    -0.000255892         0.668182       -0.148022
5.024                   0.796092      -0.0114565       0.00316203     -0.00609457     -0.000642002    -0.000392388
                      0.00319662     -0.00608421         0.792333      -0.0456938      -0.00060419    -0.000249477
                    -0.000672275    -0.000410003     -0.000597454    -0.000243027          0.66625       -0.147156
5.025                   0.796138      -0.0114828       0.00307914     -0.00612911     -0.000651325    -0.000379434
                      0.00311402       -0.006121         0.792184      -0.0456461     -0.000608748     -0.00023598
                     -0.00068249       -0.000395     -0.000601668    -0.000230001         0.664316       -0.146258
5.026                   0.796183      -0.0115105       0.00299616     -0.00616264     -0.000660413    -0.000366193
                      0.00303118     -0.00615679         0.792036      -0.0455991     -0.000612929    -0.000222314
                    -0.000692335    -0.000379669     -0.000605536    -0.000216824          0.66238       -0.145328
5.027                   0.796227      -0.0115395       0.00291308     -0.00619519     -0.000669255    -0.000352668
                      0.00294811     -0.00619157         0.791887      -0.0455528     -0.000616723    -0.000208494
                    -0.000701797    -0.000364019      -0.00060905    -0.000203508         0.660442       -0.144367
5.028                   0.796269      -0.0115698       0.00282992     -0.00622677     -0.000677843     -0.00033886
                      0.00286482     -0.00622537          0.79174      -0.0455072      -0.00062012    -0.000194534
                    -0.000710865    -0.000348062     -0.000612201    -0.000190066         0.658503       -0.143373
5.029                    0.79631      -0.0116014       0.00274668     -0.00625739     -0.000686164    -0.000324772
                      0.00278131     -0.00625818         0.791593      -0.0454624     -0.000623112    -0.000180447
                    -0.000719528    -0.000331808     -0.000614981    -0.000176508         0.656563       -0.142347
5.03                    0.796349      -0.0116342       0.00266337     -0.00628708     -0.000694209    -0.000310407
                       0.0026976     -0.00629001         0.791447      -0.0454183     -0.000625692     -0.00016625
                    -0.000727774     -0.00031527     -0.000617383    -0.000162849         0.654623       -0.141287
5.031                   0.796387      -0.0116681       0.00257998     -0.00631585     -0.000701966    -0.000295767
                      0.00261368     -0.00632087           0.7913       -0.045375     -0.000627851    -0.000151958
                    -0.000735593     -0.00029846     -0.000619399    -0.000149102         0.652683       -0.140194
5.032                   0.796424      -0.0117032       0.00249654     -0.00634371     -0.000709424    -0.000280856
                      0.00252958     -0.00635078         0.791155      -0.0453325     -0.000629584    -0.000137588
                    -0.000742974     -0.00028139     -0.000621024    -0.000135282         0.650745       -0.139067
5.033                   0.796459      -0.0117394       0.00241302     -0.00637069     -0.000716571    -0.000265679
                       0.0024453     -0.00637974          0.79101      -0.0452908     -0.000630884    -0.000123157
                    -0.000749909    -0.000264072     -0.000622251    -0.000121402         0.648809       -0.137905
5.034                   0.796492      -0.0117767       0.00232945     -0.00639678     -0.000723397    -0.000250239
                      0.00236083     -0.00640775         0.790865      -0.0452498     -0.000631747    -0.000108681
                    -0.000756387     -0.00024652     -0.000623076    -0.000107478         0.646875       -0.136709
5.035                   0.796524       -0.011815        0.0022458     -0.00642202     -0.000729889    -0.000234543
                      0.00227619     -0.00643482          0.79072      -0.0452096     -0.000632169    -9.41779e-05
                    -0.000762399    -0.000228748     -0.000623494    -9.35257e-05         0.644945       -0.135479
5.036                   0.796554      -0.0118542        0.0021621     -0.00644641     -0.000736036    -0.000218595
                      0.00219138     -0.00646097         0.790576      -0.0451703     -0.000632145    -7.96662e-05
                    -0.000767937    -0.000210769     -0.000623501    -7.95603e-05         0.643019       -0.134213
5.037                   0.796583      -0.0118944       0.00207832     -0.00646996     -0.000741827    -0.000202402
                      0.00210641     -0.00648619         0.790432      -0.0451317     -0.000631675    -6.51638e-05
                    -0.000772993    -0.000192598     -0.000623096    -6.55979e-05         0.641097       -0.132912
5.038                    0.79661      -0.0119355       0.00199448     -0.00649268     -0.000747249    -0.000185971
                      0.00202128      -0.0065105         0.790289       -0.045094     -0.000630756    -5.06892e-05
                     -0.00077756    -0.000174248     -0.000622275     -5.1655e-05         0.639181       -0.131575
5.039                   0.796636      -0.0119775       0.00191056      -0.0065146     -0.000752291    -0.000169309
                      0.00193598      -0.0065339         0.790145      -0.0450571     -0.000629388     -3.6261e-05
                    -0.000781629    -0.000155736     -0.000621037    -3.77486e-05          0.63727       -0.130202
5.04                     0.79666      -0.0120202       0.00182656     -0.00653571     -0.000756941    -0.000152423
                      0.00185054      -0.0065564         0.790002       -0.045021     -0.000627571     -2.1898e-05
                    -0.000785195    -0.000137074     -0.000619381    -2.38951e-05         0.635367       -0.128793
5.041                   0.796683      -0.0120638       0.00174248     -0.00655602     -0.000761187    -0.000135324
                      0.00176493       -0.006578         0.789859      -0.0449857     -0.000625306    -7.61932e-06
                    -0.000788251     -0.00011828     -0.000617309    -1.01117e-05         0.633472       -0.127348
5.042                   0.796704       -0.012108       0.00165831     -0.00657555     -0.000765018    -0.000118019
                      0.00167917     -0.00659871         0.789716      -0.0449512     -0.000622596     6.55643e-06
                    -0.000790791    -9.93687e-05     -0.000614821     3.58464e-06         0.631585       -0.125865
5.043                   0.796723       -0.012153       0.00157404     -0.00659431     -0.000768423    -0.000100518
                      0.00159326     -0.00661853         0.789573      -0.0449176     -0.000619444     2.06102e-05
                     -0.00079281    -8.03553e-05     -0.000611919     1.71765e-05         0.629707       -0.124346
5.044                   0.796741      -0.0121986       0.00148967     -0.00661229     -0.000771389     -8.2833e-05
                       0.0015072     -0.00663747          0.78943      -0.0448848     -0.000615854      3.4523e-05
                    -0.000794304    -6.12561e-05     -0.000608606     3.06467e-05         0.627839       -0.122791
5.045                   0.796757      -0.0122448        0.0014052     -0.00662951     -0.000773907    -6.49738e-05
                      0.00142099     -0.00665553         0.789287      -0.0448528     -0.000611831     4.82763e-05
                    -0.000795267    -4.20871e-05     -0.000604885     4.39782e-05         0.625982       -0.121198
5.046                   0.796772      -0.0122916        0.0013206     -0.00664596     -0.000775964    -4.69526e-05
                      0.00133462     -0.00667271         0.789144      -0.0448216     -0.000607381     6.18512e-05
                    -0.000795697    -2.28649e-05     -0.000600762     5.71538e-05         0.624137       -0.119567
5.047                   0.796785       -0.012339       0.00123588     -0.00666166      -0.00077755     -2.8782e-05
                       0.0012481     -0.00668901         0.789001      -0.0447912     -0.000602512     7.52297e-05
                     -0.00079559    -3.60588e-06     -0.000596243     7.01562e-05         0.622305       -0.117899
5.048                   0.796796      -0.0123868       0.00115103     -0.00667661     -0.000778656    -1.04745e-05
                      0.00116143     -0.00670445         0.788858      -0.0447617     -0.000597232     8.83936e-05
                    -0.000794944     1.56731e-05     -0.000591332      8.2969e-05         0.620487       -0.116194
5.049                   0.796806      -0.0124351       0.00106604      -0.0066908      -0.00077927     7.95549e-06
                      0.00107461     -0.00671902         0.788715      -0.0447329     -0.000591549     0.000101325
                    -0.000793756     3.49556e-05     -0.000586038     9.55752e-05         0.618682       -0.114451
5.05                    0.796814      -0.0124838      0.000980894     -0.00670424     -0.000779384     2.64941e-05
                     0.000987631     -0.00673271         0.788572       -0.044705     -0.000585473     0.000114007
                    -0.000792025     5.42245e-05      -0.00058037     0.000107959         0.616893       -0.112671
5.051                   0.796821      -0.0125328      0.000895592     -0.00671692     -0.000778987      4.5126e-05
                     0.000900495     -0.00674554         0.788428      -0.0446778     -0.000579016     0.000126421
                    -0.000789749     7.34628e-05     -0.000574335     0.000120104         0.615121       -0.110852
5.052                   0.796826      -0.0125822      0.000810124     -0.00672885     -0.000778072     6.38353e-05
                     0.000813201      -0.0067575         0.788285      -0.0446515     -0.000572189     0.000138553
                    -0.000786928      9.2653e-05     -0.000567943     0.000131994         0.613366       -0.108997
5.053                    0.79683       -0.012632      0.000724478     -0.00674002     -0.000776629     8.26065e-05
                     0.000725749     -0.00676858         0.788141      -0.0446259     -0.000565005     0.000150386
                    -0.000783562     0.000111778     -0.000561207     0.000143615         0.611628       -0.107103
5.054                   0.796832      -0.0126819      0.000638649     -0.00675043     -0.000774652     0.000101422
                     0.000638132      -0.0067788         0.787997      -0.0446012     -0.000557477     0.000161905
                    -0.000779651     0.000130821     -0.000554136     0.000154952          0.60991       -0.105172
5.055                   0.796832      -0.0127321      0.000552627     -0.00676008     -0.000772133     0.000120264
                     0.000550354     -0.00678814         0.787852      -0.0445772      -0.00054962     0.000173095
                    -0.000775198     0.000149765     -0.000546745      0.00016599         0.608212       -0.103203
5.056                   0.796831      -0.0127825      0.000466406     -0.00676895     -0.000769065     0.000139115
                     0.000462411      -0.0067966         0.787708      -0.0445539     -0.000541448     0.000183943
                    -0.000770202     0.000168591     -0.000539044     0.000176716         0.606535       -0.101197
5.057                   0.796829      -0.0128331      0.000379975     -0.00677704     -0.000765443     0.000157957
                     0.000374303     -0.00680418         0.787563      -0.0445314     -0.000532978     0.000194434
                    -0.000764668     0.000187283      -0.00053105     0.000187117          0.60488      -0.0991532
5.058                   0.796825      -0.0128838      0.000293331     -0.00678434     -0.000761261      0.00017677
                     0.000286027     -0.00681087         0.787417      -0.0445097     -0.000524226     0.000204558
                    -0.000758596     0.000205823     -0.000522775      0.00019718         0.603248      -0.0970725
5.059                   0.796819      -0.0129346      0.000206461     -0.00679086     -0.000756515     0.000195534
                      0.00019758     -0.00681667         0.787272      -0.0444887      -0.00051521     0.000214301
                    -0.000751992     0.000224193     -0.000514236     0.000206895          0.60164      -0.0949547
5.06                    0.796812      -0.0129854      0.000119366     -0.00679656     -0.000751201     0.000214229
                     0.000108965     -0.00682158         0.787126      -0.0444684     -0.000505947     0.000223655
                    -0.000744858     0.000242377     -0.000505448     0.000216249         0.600057      -0.0928001
5.061                   0.796804      -0.0130363      3.20327e-05     -0.00680145     -0.000745316     0.000232835
                     2.01771e-05     -0.00682559         0.786979      -0.0444489     -0.000496455     0.000232608
                      -0.0007372     0.000260358     -0.000496427     0.000225234         0.598499      -0.0906089
5.062                   0.796794      -0.0130871      -5.5537e-05     -0.00680551     -0.000738858      0.00025133
                    -6.87809e-05     -0.00682868         0.786832      -0.0444301     -0.000486754     0.000241152
                    -0.000729022     0.000278116     -0.000487192     0.000233839         0.596969      -0.0883814
5.063                   0.796783      -0.0131379     -0.000143355     -0.00680873     -0.000731827     0.000269694
                    -0.000157911     -0.00683086         0.786684      -0.0444119     -0.000476864      0.00024928
                    -0.000720331     0.000295636     -0.000477759     0.000242057         0.595467      -0.0861179
5.064                    0.79677      -0.0131887     -0.000231419     -0.00681109     -0.000724221     0.000287905
                    -0.000247216     -0.00683212         0.786536      -0.0443944     -0.000466803     0.000256985
                    -0.000711132     0.000312901     -0.000468147      0.00024988         0.593994      -0.0838186
5.065                   0.796756      -0.0132393     -0.000319737     -0.00681259     -0.000716042     0.000305939
                     -0.00033669     -0.00683244         0.786388      -0.0443777     -0.000456592     0.000264261
                    -0.000701433     0.000329893     -0.000458373     0.000257301         0.592551      -0.0814839
5.066                   0.796741      -0.0132898     -0.000408309     -0.00681321     -0.000707291     0.000323777
                    -0.000426336     -0.00683182         0.786239      -0.0443615     -0.000446252     0.000271102
                    -0.000691241     0.000346596     -0.000448458     0.000264315         0.591139      -0.0791144
5.067                   0.796724      -0.0133402     -0.000497134     -0.00681293     -0.000697971     0.000341394
                    -0.000516151     -0.00683024         0.786089       -0.044346     -0.000435804     0.000277507
                    -0.000680564     0.000362993     -0.000438419     0.000270918         0.589759      -0.0767102
5.068                   0.796706      -0.0133904     -0.000586219     -0.00681174     -0.000688085     0.000358768
                    -0.000606132     -0.00682771         0.785939      -0.0443312     -0.000425268     0.000283471
                    -0.000669411     0.000379067     -0.000428277     0.000277104         0.588412      -0.0742721
5.069                   0.796687      -0.0134404     -0.000675558     -0.00680961     -0.000677639     0.000375876
                    -0.000696279      -0.0068242         0.785788      -0.0443169     -0.000414665     0.000288995
                    -0.000657792     0.000394802     -0.000418051     0.000282873         0.587099      -0.0718003
5.07                    0.796666      -0.0134902     -0.000765159     -0.00680654     -0.000666638     0.000392697
                    -0.000786593      -0.0068197         0.785636      -0.0443033     -0.000404017     0.000294077
                    -0.000645717     0.000410183     -0.000407761     0.000288223         0.585822      -0.0692954
5.071                   0.796645      -0.0135397     -0.000855008     -0.00680251     -0.000655088     0.000409206
                     -0.00087706     -0.00681422         0.785484      -0.0442903     -0.000393345     0.000298719
                    -0.000633195     0.000425192     -0.000397427     0.000293153          0.58458       -0.066758
5.072                   0.796621       -0.013589     -0.000945107     -0.00679749     -0.000642999     0.000425381
                     -0.00096769     -0.00680772         0.785331      -0.0442778     -0.000382669     0.000302923
                    -0.000620239     0.000439816     -0.000387068     0.000297663         0.583376      -0.0641888
5.073                   0.796597      -0.0136379      -0.00103546     -0.00679147     -0.000630378     0.000441201
                     -0.00105846      -0.0068002         0.785177      -0.0442659     -0.000372011     0.000306691
                     -0.00060686     0.000454038     -0.000376704     0.000301756          0.58221      -0.0615881
5.074                   0.796572      -0.0136866      -0.00112605     -0.00678443     -0.000617236     0.000456641
                     -0.00114938     -0.00679165         0.785023      -0.0442545     -0.000361391     0.000310028
                     -0.00059307     0.000467843     -0.000366356     0.000305434         0.581083      -0.0589569
5.075                   0.796545      -0.0137349      -0.00121687     -0.00677635     -0.000603585      0.00047168
                     -0.00124044     -0.00678206         0.784868      -0.0442437      -0.00035083     0.000312939
                    -0.000578883     0.000481218     -0.000356042       0.0003087         0.579995      -0.0562958
5.076                   0.796518      -0.0137828      -0.00130792     -0.00676721     -0.000589437     0.000486297
                     -0.00133164      -0.0067714         0.784712      -0.0442334     -0.000340347     0.000315432
                    -0.000564313     0.000494147     -0.000345782     0.000311561         0.578949      -0.0536053
5.077                   0.796489      -0.0138304       -0.0013992     -0.00675699     -0.000574805     0.000500469
                     -0.00142295     -0.00675968         0.784555      -0.0442236     -0.000329963     0.000317512
                    -0.000549373     0.000506616     -0.000335596      0.00031402         0.577945      -0.0508865
5.078                   0.796459      -0.0138777      -0.00149068     -0.00674568     -0.000559704     0.000514176
                     -0.00151439     -0.00674686         0.784397      -0.0442142     -0.000319697      0.00031919
                    -0.000534078     0.000518614     -0.000325501     0.000316086         0.576984        -0.04814
5.079                   0.796428      -0.0139245      -0.00158237     -0.00673325      -0.00054415     0.000527397
                     -0.00160593     -0.00673295         0.784239      -0.0442053     -0.000309567     0.000320475
                    -0.000518444     0.000530126     -0.000315516     0.000317767         0.576067      -0.0453666
5.08                    0.796396      -0.0139709      -0.00167424     -0.00671968     -0.000528159     0.000540112
                     -0.00169757     -0.00671792          0.78408      -0.0441969     -0.000299592     0.000321377
                    -0.000502486      0.00054114     -0.000305659      0.00031907         0.575194      -0.0425676
5.081                   0.796363      -0.0140168      -0.00176629     -0.00670496      -0.00051175     0.000552301
                      -0.0017893     -0.00670177         0.783919      -0.0441889     -0.000289788     0.000321907
                    -0.000486222     0.000551644     -0.000295948     0.000320007         0.574367      -0.0397434
5.082                   0.796329      -0.0140624      -0.00185849     -0.00668907     -0.000494941     0.000563947
                      -0.0018811     -0.00668447         0.783758      -0.0441813     -0.000280174      0.00032208
                    -0.000469667     0.000561626     -0.000286398     0.000320587         0.573587       -0.036895
5.083                   0.796295      -0.0141075      -0.00195085     -0.00667198     -0.000477752      0.00057503
                     -0.00197297     -0.00666601         0.783596      -0.0441741     -0.000270764     0.000321907
                    -0.000452841     0.000571076     -0.000277026     0.000320823         0.572853      -0.0340234
5.084                   0.796259      -0.0141521      -0.00204334     -0.00665367     -0.000460204     0.000585534
                     -0.00206489     -0.00664639         0.783434      -0.0441672     -0.000261574     0.000321403
                    -0.000435761     0.000579984     -0.000267848     0.000320726         0.572168      -0.0311297
5.085                   0.796222      -0.0141963      -0.00213593     -0.00663414      -0.00044232     0.000595442