! TOUCHSTONE file generated by CST MICROWAVE STUDIO
! Date and time: Thu Jul  2 04:26:39 2020
! Project name: Female Human Lung Lower Right.cst
! Header version: 2018
! Port assignment regex: !\s*Touchstone port\s*([0-9]+)\s*=\s*(CST MWS port|CST DS port)\s*([0-9]+|Zmin|Zmax)\s*\(\"(.*)\"\)(\s*mode\s*([0-9]+))?.*
! Touchstone port assignment:
! Touchstone port 1 = CST MWS port 1 ("")
! Touchstone port 2 = CST MWS port 2 ("")
! Touchstone port 3 = CST MWS port 3 ("")
# GHz S RI R 50
5                       0.801844      -0.0530841      0.000669795      -0.0194364      0.000767563     0.000432691
                     0.000662989      -0.0194182         0.790222      -0.0532566      0.000943973     0.000114913
                     0.000757002     0.000420702       0.00094558     0.000110661         0.792673       0.0848533
5.001                   0.801556      -0.0532148      0.000510934      -0.0194464       0.00077433     0.000423311
                     0.000505209       -0.019428         0.789939       -0.053282       0.00094529     0.000103123
                      0.00076325     0.000412041      0.000946643     9.88338e-05         0.793818       0.0844145
5.002                   0.801265      -0.0533439      0.000351714      -0.0194552       0.00078101     0.000413806
                     0.000347065      -0.0194367         0.789654       -0.053306      0.000946509     9.13251e-05
                     0.000769457     0.000403274      0.000947608     8.70135e-05         0.794949       0.0839647
5.003                   0.800972      -0.0534713      0.000192132      -0.0194629        0.0007876     0.000404177
                     0.000188552      -0.0194443         0.789369      -0.0533286      0.000947628     7.95188e-05
                     0.000775618     0.000394397      0.000948475     7.51988e-05         0.796066       0.0835042
5.004                   0.800677       -0.053597      3.21925e-05      -0.0194694      0.000794096     0.000394422
                     2.96838e-05      -0.0194508         0.789082      -0.0533498      0.000948647     6.77028e-05
                     0.000781731      0.00038541      0.000949245     6.33882e-05         0.797167       0.0830334
5.005                   0.800379      -0.0537209     -0.000128088      -0.0194747      0.000800495     0.000384544
                    -0.000129535      -0.0194561         0.788794      -0.0533696      0.000949566      5.5876e-05
                     0.000787793     0.000376308      0.000949919     5.15805e-05         0.798255       0.0825525
5.006                   0.800078      -0.0538431     -0.000288715      -0.0194788      0.000806793     0.000374542
                     -0.00028911      -0.0194603         0.788505      -0.0533879      0.000950385     4.40375e-05
                       0.0007938     0.000367092      0.000950497     3.97742e-05         0.799328        0.082062
5.007                   0.799776      -0.0539635     -0.000449671      -0.0194816      0.000812987     0.000364417
                    -0.000449034      -0.0194632         0.788215      -0.0534047      0.000951103     3.21862e-05
                     0.000799748     0.000357758      0.000950978     2.79678e-05         0.800387        0.081562
5.008                    0.79947       -0.054082      -0.00061094      -0.0194831      0.000819074      0.00035417
                    -0.000609283       -0.019465         0.787923      -0.0534201       0.00095172     2.03212e-05
                     0.000805634     0.000348305      0.000951364     1.61601e-05         0.801431        0.081053
5.009                   0.799163      -0.0541986     -0.000772522      -0.0194834      0.000825049     0.000343802
                     -0.00076986      -0.0194655         0.787631      -0.0534339      0.000952235     8.44158e-06
                     0.000811454     0.000338732      0.000951653      4.3498e-06         0.802462       0.0805352
5.01                    0.798853      -0.0543133     -0.000934393      -0.0194824      0.000830911     0.000333314
                    -0.000930768      -0.0194648         0.787337      -0.0534463      0.000952647    -3.45349e-06
                     0.000817204     0.000329037      0.000951847    -7.46459e-06         0.803478       0.0800089
5.011                   0.798541      -0.0544261      -0.00109655        -0.01948      0.000836655     0.000322707
                     -0.00109197      -0.0194628         0.787042       -0.053457      0.000952955    -1.53649e-05
                     0.000822879     0.000319219      0.000951944    -1.92844e-05          0.80448       0.0794744
5.012                   0.798226      -0.0545368      -0.00125898      -0.0194764      0.000842278     0.000311982
                     -0.00125348      -0.0194596         0.786745      -0.0534662      0.000953159    -2.72933e-05
                     0.000828477     0.000309277      0.000951944    -3.11108e-05         0.805468        0.078932
5.013                   0.797909      -0.0546455      -0.00142165      -0.0194713      0.000847777     0.000301141
                     -0.00141527       -0.019455         0.786448      -0.0534738      0.000953258    -3.92395e-05
                     0.000833992     0.000299211      0.000951846    -4.29451e-05         0.806442       0.0783819
5.014                   0.797589      -0.0547521      -0.00158458       -0.019465      0.000853148     0.000290185
                     -0.00157733      -0.0194491         0.786149      -0.0534797      0.000953249    -5.12041e-05
                     0.000839421      0.00028902      0.000951651    -5.47886e-05         0.807402       0.0778244
5.015                   0.797267      -0.0548565      -0.00174772      -0.0194572       0.00085839     0.000279116
                     -0.00173966      -0.0194419         0.785849      -0.0534841      0.000953134    -6.31877e-05
                      0.00084476     0.000278704      0.000951357    -6.66423e-05         0.808348       0.0772598
5.016                   0.796943      -0.0549588      -0.00191107       -0.019448      0.000863498     0.000267935
                     -0.00190222      -0.0194333         0.785548      -0.0534867      0.000952909    -7.51908e-05
                     0.000850004     0.000268261      0.000950963    -7.85075e-05         0.809281       0.0766884
5.017                   0.796617      -0.0550589      -0.00207459      -0.0194375      0.000868469     0.000256645
                     -0.00206501      -0.0194234         0.785245      -0.0534877      0.000952574     -8.7214e-05
                     0.000855149     0.000257693      0.000950468    -9.03851e-05           0.8102       0.0761103
5.018                   0.796288      -0.0551567       -0.0022383      -0.0194255      0.000873301     0.000245248
                     -0.00222801      -0.0194121         0.784942      -0.0534869      0.000952128    -9.92576e-05
                      0.00086019        0.000247      0.000949872    -0.000102276         0.811105       0.0755259
5.019                   0.795957      -0.0552522      -0.00240215       -0.019412      0.000877991     0.000233744
                      -0.0023912      -0.0193993         0.784637      -0.0534844      0.000951569    -0.000111322
                     0.000865124     0.000236181      0.000949173    -0.000114182         0.811997       0.0749353
5.02                    0.795623      -0.0553453      -0.00256612      -0.0193972      0.000882535     0.000222137
                     -0.00255457      -0.0193852         0.784331      -0.0534802      0.000950895    -0.000123407
                     0.000869947     0.000225238       0.00094837    -0.000126103         0.812875       0.0743389
5.021                   0.795288      -0.0554361      -0.00273022      -0.0193808      0.000886931     0.000210429
                     -0.00271809      -0.0193696         0.784024      -0.0534741      0.000950106    -0.000135514
                     0.000874653      0.00021417      0.000947462     -0.00013804          0.81374       0.0737368
5.022                    0.79495      -0.0555244       -0.0028944       -0.019363      0.000891177     0.000198621
                     -0.00288175      -0.0193526         0.783716      -0.0534662      0.000949199    -0.000147642
                     0.000879238      0.00020298      0.000946446    -0.000149994         0.814592       0.0731292
5.023                    0.79461      -0.0556103      -0.00305864      -0.0193437      0.000895269     0.000186716
                     -0.00304552      -0.0193341         0.783406      -0.0534565      0.000948173    -0.000159792
                     0.000883699     0.000191667      0.000945323    -0.000161966         0.815431       0.0725164
5.024                   0.794267      -0.0556936      -0.00322293      -0.0193229      0.000899206     0.000174717
                     -0.00320939      -0.0193141         0.783095      -0.0534449      0.000947027    -0.000171963
                     0.000888032     0.000180234       0.00094409    -0.000173955         0.816256       0.0718987
5.025                   0.793923      -0.0557744      -0.00338724      -0.0193006      0.000902984     0.000162626
                     -0.00337332      -0.0192926         0.782784      -0.0534314      0.000945758    -0.000184155
                     0.000892231     0.000168681      0.000942745    -0.000185964         0.817069       0.0712761
5.026                   0.793576      -0.0558526      -0.00355155      -0.0192768      0.000906601     0.000150445
                     -0.00353731      -0.0192697         0.782471       -0.053416      0.000944365    -0.000196368
                     0.000896293      0.00015701      0.000941287    -0.000197992         0.817869       0.0706489
5.027                   0.793228      -0.0559281      -0.00371583      -0.0192515      0.000910055     0.000138178
                     -0.00370131      -0.0192452         0.782157      -0.0533986      0.000942846    -0.000208602
                     0.000900213     0.000145223      0.000939714    -0.000210039         0.818656       0.0700174
5.028                   0.792877      -0.0560009      -0.00388006      -0.0192246      0.000913344     0.000125826
                     -0.00386532      -0.0192192         0.781842      -0.0533793        0.0009412    -0.000220856
                     0.000903989     0.000133322      0.000938024    -0.000222105          0.81943       0.0693816
5.029                   0.792524       -0.056071      -0.00404422      -0.0191962      0.000916465     0.000113393
                     -0.00402931      -0.0191917         0.781526       -0.053358      0.000939424    -0.000233131
                     0.000907615     0.000121308      0.000936215    -0.000234192         0.820192       0.0687419
5.03                    0.792169      -0.0561383      -0.00420829      -0.0191663      0.000919416     0.000100881
                     -0.00419324      -0.0191626         0.781209      -0.0533346      0.000937517    -0.000245425
                     0.000911087     0.000109184      0.000934286    -0.000246299         0.820942       0.0680983
5.031                   0.791812      -0.0562028      -0.00437223      -0.0191348      0.000922196     8.82934e-05
                      -0.0043571       -0.019132          0.78089      -0.0533092      0.000935476    -0.000257738
                     0.000914403     9.69527e-05      0.000932233    -0.000258425         0.821679        0.067451
5.032                   0.791453      -0.0562644      -0.00453601      -0.0191018      0.000924802     7.56327e-05
                     -0.00452086      -0.0190999         0.780571      -0.0532817      0.000933301     -0.00027007
                     0.000917558     8.46159e-05      0.000930056    -0.000270571         0.822404       0.0668003
5.033                   0.791092      -0.0563231      -0.00469963      -0.0190672      0.000927233     6.29018e-05
                      -0.0046845      -0.0190662         0.780251      -0.0532521      0.000930988    -0.000282418
                     0.000920549     7.21764e-05      0.000927752    -0.000282737         0.823116       0.0661463
5.034                   0.790729      -0.0563788      -0.00486303      -0.0190311      0.000929486     5.01037e-05
                     -0.00484798      -0.0190309          0.77993      -0.0532204      0.000928537    -0.000294784
                     0.000923371     5.96369e-05      0.000925318    -0.000294922         0.823817       0.0654892
5.035                   0.790365      -0.0564316      -0.00502622      -0.0189934       0.00093156     3.72414e-05
                     -0.00501129      -0.0189941         0.779607      -0.0531865      0.000925944    -0.000307165
                     0.000926022     4.70004e-05      0.000922754    -0.000307125         0.824506       0.0648291
5.036                   0.789998      -0.0564813      -0.00518915      -0.0189542      0.000933454      2.4318e-05
                     -0.00517438      -0.0189557         0.779284      -0.0531505      0.000923209    -0.000319561
                     0.000928497     3.42697e-05      0.000920055    -0.000319347         0.825183       0.0641661
5.037                    0.78963       -0.056528       -0.0053518      -0.0189134      0.000935165     1.13364e-05
                     -0.00533725      -0.0189157          0.77896      -0.0531123      0.000920329     -0.00033197
                     0.000930795     2.14482e-05      0.000917221    -0.000331586         0.825848       0.0635005
5.038                    0.78926      -0.0565715      -0.00551415      -0.0188711      0.000936693    -1.70019e-06
                     -0.00549985      -0.0188742         0.778635      -0.0530718      0.000917302    -0.000344392
                      0.00093291     8.53893e-06      0.000914249    -0.000343842         0.826501       0.0628324
5.039                   0.788888      -0.0566119      -0.00567617      -0.0188272      0.000938036    -1.47888e-05
                     -0.00566216      -0.0188311         0.778309      -0.0530292      0.000914126    -0.000356825
                     0.000934842     -4.4547e-06      0.000911137    -0.000356114         0.827144        0.062162
5.04                    0.788514      -0.0566491      -0.00583784      -0.0187818      0.000939192    -2.79262e-05
                     -0.00582415      -0.0187865         0.777982      -0.0529842        0.0009108    -0.000369267
                     0.000936585    -1.75292e-05      0.000907881      -0.0003684         0.827774       0.0614893
5.041                   0.788139      -0.0566831      -0.00599911      -0.0187349      0.000940161    -4.11093e-05
                      -0.0059858      -0.0187402         0.777655       -0.052937      0.000907321    -0.000381718
                     0.000938139    -3.06811e-05      0.000904481    -0.000380701         0.828394       0.0608145
5.042                   0.787763      -0.0567138      -0.00615998      -0.0186864      0.000940942    -5.43351e-05
                     -0.00614709      -0.0186924         0.777326      -0.0528875      0.000903688    -0.000394175
                     0.000939499    -4.39068e-05      0.000900934    -0.000393014         0.829002       0.0601377
5.043                   0.787384      -0.0567412      -0.00632041      -0.0186364      0.000941532    -6.76002e-05
                     -0.00630798      -0.0186431         0.776997      -0.0528356      0.000899898    -0.000406637
                     0.000940663    -5.72025e-05      0.000897237    -0.000405338         0.829599       0.0594592
5.044                   0.787004      -0.0567653      -0.00648039      -0.0185848      0.000941932    -8.09016e-05
                     -0.00646844      -0.0185922         0.776667      -0.0527815       0.00089595    -0.000419103
                     0.000941629    -7.05643e-05      0.000893388    -0.000417673         0.830185       0.0587789
5.045                   0.786623       -0.056786      -0.00663988      -0.0185318       0.00094214     -9.4236e-05
                     -0.00662844      -0.0185398         0.776336      -0.0527249      0.000891842    -0.000431571
                     0.000942394    -8.39884e-05      0.000889386    -0.000430015         0.830761       0.0580971
5.046                    0.78624      -0.0568033      -0.00679887      -0.0184773      0.000942156      -0.0001076
                     -0.00678798      -0.0184858         0.776004       -0.052666      0.000887572    -0.000444038
                     0.000942956    -9.74709e-05      0.000885226    -0.000442364         0.831326       0.0574139
5.047                   0.785856      -0.0568172      -0.00695732      -0.0184212      0.000941979    -0.000120991
                       -0.006947      -0.0184303         0.775672      -0.0526047      0.000883138    -0.000456502
                     0.000943314    -0.000111008      0.000880909    -0.000454719          0.83188       0.0567292
5.048                   0.785471      -0.0568276      -0.00711522      -0.0183637      0.000941608    -0.000134406
                      -0.0071055      -0.0183733         0.775339       -0.052541      0.000878539    -0.000468963
                     0.000943464    -0.000124595       0.00087643    -0.000467076         0.832423       0.0560434
5.049                   0.785084      -0.0568346      -0.00727254      -0.0183047      0.000941042    -0.000147841
                     -0.00726344      -0.0183148         0.775006      -0.0524749      0.000873772    -0.000481417
                     0.000943405    -0.000138228      0.000871788    -0.000479435         0.832956       0.0553565
5.05                    0.784696       -0.056838      -0.00742925      -0.0182443      0.000940281    -0.000161293
                      -0.0074208      -0.0182548         0.774672      -0.0524063      0.000868836    -0.000493862
                     0.000943135    -0.000151903      0.000866981    -0.000491792         0.833479       0.0546685
5.051                   0.784307      -0.0568378      -0.00758534      -0.0181824      0.000939325    -0.000174759
                     -0.00757755      -0.0181934         0.774337      -0.0523353       0.00086373    -0.000506296
                     0.000942654    -0.000165615      0.000862007    -0.000504147         0.833991       0.0539797
5.052                   0.783917      -0.0568341      -0.00774079      -0.0181191      0.000938172    -0.000188235
                     -0.00773366      -0.0181304         0.774002      -0.0522618       0.00085845    -0.000518718
                     0.000941958    -0.000179361      0.000856863    -0.000516496         0.834494       0.0532901
5.053                   0.783526      -0.0568268      -0.00789556      -0.0180544      0.000936824     -0.00020172
                     -0.00788913       -0.018066         0.773666      -0.0521859      0.000852997    -0.000531123
                     0.000941047    -0.000193136      0.000851548    -0.000528838         0.834986       0.0525997
5.054                   0.783134      -0.0568158      -0.00804965      -0.0179883      0.000935278    -0.000215209
                     -0.00804392      -0.0180002          0.77333      -0.0521074      0.000847369     -0.00054351
                      0.00093992    -0.000206936      0.000846059     -0.00054117         0.835469       0.0519088
5.055                   0.782741      -0.0568012      -0.00820302      -0.0179208      0.000933537    -0.000228699
                     -0.00819801      -0.0179329         0.772993      -0.0520265      0.000841564    -0.000555877
                     0.000938576    -0.000220757      0.000840395    -0.000553488         0.835941       0.0512173
5.056                   0.782347       -0.056783      -0.00835567       -0.017852      0.000931598    -0.000242188
                     -0.00835139      -0.0178642         0.772656      -0.0519431       0.00083558     -0.00056822
                     0.000937014    -0.000234593      0.000834553    -0.000565792         0.836404       0.0505255
5.057                   0.781952       -0.056761      -0.00850757      -0.0177818      0.000929462    -0.000255671
                     -0.00850402      -0.0177942         0.772319      -0.0518571      0.000829416    -0.000580537
                     0.000935232    -0.000248441      0.000828532    -0.000578078         0.836858       0.0498332
5.058                   0.781556      -0.0567354      -0.00865872      -0.0177102      0.000927129    -0.000269147
                     -0.00865588      -0.0177227         0.771981      -0.0517686      0.000823071    -0.000592825
                     0.000933231    -0.000262296       0.00082233    -0.000590342         0.837302       0.0491408
5.059                    0.78116       -0.056706      -0.00880908      -0.0176374      0.000924599    -0.000282612
                     -0.00880697        -0.01765         0.771642      -0.0516776      0.000816543    -0.000605081
                     0.000931009    -0.000276154      0.000815945    -0.000602584         0.837736       0.0484481
5.06                    0.780763      -0.0566728      -0.00895864      -0.0175633      0.000921872    -0.000296063
                     -0.00895727      -0.0175758         0.771304      -0.0515841      0.000809832    -0.000617303
                     0.000928567    -0.000290011      0.000809376    -0.000614798         0.838162       0.0477554
5.061                   0.780365       -0.056636      -0.00910739      -0.0174879      0.000918948    -0.000309497
                     -0.00910673      -0.0175004         0.770965       -0.051488      0.000802935    -0.000629487
                     0.000925904    -0.000303862      0.000802621    -0.000626982         0.838578       0.0470626
5.062                   0.779967      -0.0565953      -0.00925531      -0.0174112      0.000915827    -0.000322912
                     -0.00925537      -0.0174237         0.770626      -0.0513894      0.000795853     -0.00064163
                     0.000923019    -0.000317702      0.000795678    -0.000639133         0.838984         0.04637
5.063                   0.779568      -0.0565509       -0.0094024      -0.0173333      0.000912511    -0.000336303
                     -0.00940316      -0.0173457         0.770286      -0.0512882      0.000788583     -0.00065373
                     0.000919913    -0.000331528      0.000788546    -0.000651248         0.839382       0.0456774
5.064                   0.779169      -0.0565026      -0.00954863      -0.0172542      0.000908997    -0.000349668
                     -0.00955008      -0.0172665         0.769947      -0.0511844      0.000781125    -0.000665782
                     0.000916586    -0.000345335      0.000781224    -0.000663323         0.839771        0.044985
5.065                    0.77877      -0.0564506        -0.009694       -0.017174      0.000905288    -0.000363004
                     -0.00969613       -0.017186         0.769607      -0.0510781      0.000773478    -0.000677785
                     0.000913038    -0.000359119       0.00077371    -0.000675355         0.840152       0.0442929
5.066                    0.77837      -0.0563948      -0.00983849      -0.0170925      0.000901384    -0.000376309
                     -0.00984129      -0.0171043         0.769267      -0.0509693      0.000765642    -0.000689734
                     0.000909269    -0.000372876      0.000766004    -0.000687341         0.840523       0.0436012
5.067                    0.77797      -0.0563351      -0.00998209      -0.0170099      0.000897284    -0.000389579
                     -0.00998554      -0.0170215         0.768927      -0.0508578      0.000757614    -0.000701627
                      0.00090528    -0.000386601      0.000758103    -0.000699277         0.840886       0.0429098
5.068                    0.77757      -0.0562716       -0.0101248      -0.0169262       0.00089299    -0.000402811
                      -0.0101289      -0.0169375         0.768587      -0.0507438      0.000749395    -0.000713459
                     0.000901071     -0.00040029      0.000750008    -0.000711159          0.84124       0.0422189
5.069                   0.777169      -0.0562043       -0.0102666      -0.0168414      0.000888501    -0.000416004
                      -0.0102713      -0.0168523         0.768246      -0.0506272      0.000740984    -0.000725228
                     0.000896643    -0.000413939      0.000741716    -0.000722984         0.841586       0.0415285
5.07                    0.776769      -0.0561332       -0.0104075      -0.0167554      0.000883819    -0.000429152
                      -0.0104128      -0.0167661         0.767906      -0.0505081       0.00073238    -0.000736931
                     0.000891997    -0.000427545      0.000733228    -0.000734748         0.841924       0.0408387
5.071                   0.776368      -0.0560583       -0.0105475      -0.0166685      0.000878944    -0.000442256
                      -0.0105533      -0.0166787         0.767566      -0.0503864      0.000723584    -0.000748563
                     0.000887133    -0.000441102      0.000724541    -0.000746447         0.842253       0.0401495
5.072                   0.775968      -0.0559795       -0.0106866      -0.0165805      0.000873876    -0.000455311
                      -0.0106929      -0.0165903         0.767225      -0.0502621      0.000714594    -0.000760121
                     0.000882053    -0.000454606      0.000715657    -0.000758078         0.842574        0.039461
5.073                   0.775568      -0.0558969       -0.0108247      -0.0164914      0.000868616    -0.000468315
                      -0.0108316      -0.0165008         0.766885      -0.0501353      0.000705409    -0.000771601
                     0.000876756    -0.000468056      0.000706574    -0.000769636         0.842887       0.0387732
5.074                   0.775168      -0.0558105       -0.0109619      -0.0164014      0.000863165    -0.000481264
                      -0.0109692      -0.0164103         0.766544      -0.0500058      0.000696031    -0.000783001
                     0.000871245    -0.000481444      0.000697292    -0.000781118         0.843193       0.0380862
5.075                   0.774768      -0.0557203       -0.0110982      -0.0163104      0.000857524    -0.000494158
                       -0.011106      -0.0163189         0.766204      -0.0498738      0.000686458    -0.000794316
                     0.000865521     -0.00049477       0.00068781     -0.00079252          0.84349          0.0374
5.076                   0.774368      -0.0556263       -0.0112335      -0.0162185      0.000851693    -0.000506991
                      -0.0112417      -0.0162264         0.765864      -0.0497393      0.000676691    -0.000805542
                     0.000859585    -0.000508028      0.000678128    -0.000803837         0.843779       0.0367147
5.077                   0.773969      -0.0555284       -0.0113679      -0.0161256      0.000845671    -0.000519763
                      -0.0113765       -0.016133         0.765524      -0.0496022      0.000666729    -0.000816677
                     0.000853438    -0.000521214      0.000668245    -0.000815066         0.844061       0.0360303
5.078                    0.77357      -0.0554268       -0.0115014      -0.0160318      0.000839462    -0.000532471
                      -0.0115103      -0.0160387         0.765184      -0.0494625      0.000656572    -0.000827716
                     0.000847081    -0.000534327      0.000658162    -0.000826203         0.844335       0.0353469
5.079                   0.773172      -0.0553214       -0.0116339      -0.0159371      0.000833065    -0.000545112
                      -0.0116432      -0.0159434         0.764844      -0.0493202      0.000646222    -0.000838655
                     0.000840517     -0.00054736      0.000647879    -0.000837243         0.844601       0.0346645
5.08                    0.772774      -0.0552122       -0.0117655      -0.0158416      0.000826481    -0.000557683
                      -0.0117751      -0.0158473         0.764504      -0.0491754      0.000635677    -0.000849491
                     0.000833746    -0.000560312      0.000637396    -0.000848182          0.84486       0.0339831
5.081                   0.772377      -0.0550993       -0.0118962      -0.0157452      0.000819711    -0.000570182
                       -0.011906      -0.0157503         0.764165       -0.049028      0.000624939    -0.000860219
                     0.000826771    -0.000573178      0.000626713    -0.000859017         0.845112       0.0333028
5.082                   0.771981      -0.0549827        -0.012026      -0.0156479      0.000812756    -0.000582607
                       -0.012036      -0.0156525         0.763825      -0.0488781      0.000614007    -0.000870837
                     0.000819593    -0.000585956       0.00061583    -0.000869742         0.845356       0.0326236
5.083                   0.771585      -0.0548623       -0.0121548      -0.0155499      0.000805616    -0.000594954
                       -0.012165      -0.0155539         0.763486      -0.0487256      0.000602882     -0.00088134
                     0.000812213    -0.000598642      0.000604748    -0.000880355         0.845593       0.0319456
5.084                    0.77119      -0.0547382       -0.0122827      -0.0154511      0.000798293    -0.000607222
                      -0.0122931      -0.0154544         0.763147      -0.0485705      0.000591565    -0.000891725
                     0.000804634    -0.000611233      0.000593468     -0.00089085         0.845823       0.0312687
5.085                   0.770795      -0.0546104       -0.0124097      -0.0153514      0.000790787    -0.000619409