! TOUCHSTONE file generated by CST MICROWAVE STUDIO
! Date and time: Thu Jul  9 09:38:17 2020
! Project name: Female Human Lung Lower Right.cst
! Header version: 2018
! Port assignment regex: !\s*Touchstone port\s*([0-9]+)\s*=\s*(CST MWS port|CST DS port)\s*([0-9]+|Zmin|Zmax)\s*\(\"(.*)\"\)(\s*mode\s*([0-9]+))?.*
! Touchstone port assignment:
! Touchstone port 1 = CST MWS port 1 ("")
! Touchstone port 2 = CST MWS port 2 ("")
! Touchstone port 3 = CST MWS port 3 ("")
# GHz S RI R 50
5                       0.812491      -0.0479301        0.0141936      -0.0199267     -0.000110742     0.000415198
                       0.0142184      -0.0199329         0.802135      -0.0449014      0.000378003     0.000111213
                     -0.00012154     0.000414095      0.000375406     0.000109552          0.81113       0.0489336
5.001                   0.812326      -0.0481793        0.0140599      -0.0199985     -0.000104875      0.00041542
                        0.014084       -0.020006         0.802025      -0.0450818       0.00037928     0.000103748
                    -0.000115607     0.000414918       0.00037662     0.000102247         0.811782       0.0485099
5.002                   0.812157       -0.048429        0.0139267      -0.0200701     -9.90711e-05     0.000415562
                       0.0139502      -0.0200789         0.801912      -0.0452631      0.000380384     9.62632e-05
                    -0.000109705      0.00041565      0.000377671     9.49222e-05         0.812426       0.0480813
5.003                   0.811984       -0.048679        0.0137941      -0.0201417      -9.3331e-05     0.000415628
                       0.0138169      -0.0201517         0.801795      -0.0454452      0.000381314     8.87619e-05
                    -0.000103837     0.000416295      0.000378556     8.75823e-05          0.81306       0.0476478
5.004                   0.811808      -0.0489294        0.0136621      -0.0202132      -8.7656e-05     0.000415621
                       0.0136841      -0.0202244         0.801674      -0.0456281      0.000382068     8.12495e-05
                    -9.80041e-05     0.000416853      0.000379275     8.02321e-05         0.813686       0.0472096
5.005                   0.811629      -0.0491801        0.0135306      -0.0202847      -8.2047e-05     0.000415546
                       0.0135517       -0.020297          0.80155      -0.0458118      0.000382646     7.37312e-05
                    -9.22088e-05     0.000417327      0.000379827     7.28761e-05         0.814304       0.0467668
5.006                   0.811445      -0.0494311        0.0133996      -0.0203562     -7.65047e-05     0.000415406
                       0.0134198      -0.0203695         0.801422      -0.0459961      0.000383049     6.62122e-05
                     -8.6453e-05      0.00041772      0.000380212      6.5519e-05         0.814913       0.0463195
5.007                   0.811259      -0.0496823         0.013269      -0.0204277     -7.10297e-05     0.000415205
                       0.0132884       -0.020442         0.801291       -0.046181      0.000383274     5.86976e-05
                    -8.07385e-05     0.000418034       0.00038043     5.81655e-05         0.815514       0.0458679
5.008                   0.811068      -0.0499337         0.013139      -0.0204993     -6.56225e-05     0.000414946
                       0.0131573      -0.0205146         0.801157      -0.0463666      0.000383324     5.11925e-05
                    -7.50667e-05     0.000418271      0.000380479     5.08204e-05         0.816106        0.045412
5.009                   0.810874      -0.0501853        0.0130093       -0.020571     -6.02831e-05     0.000414633
                       0.0130267      -0.0205872         0.801019      -0.0465526      0.000383196     4.37024e-05
                    -6.94394e-05     0.000418435      0.000380361     4.34884e-05          0.81669       0.0449521
5.01                    0.810676      -0.0504371        0.0128801      -0.0206429     -5.50118e-05     0.000414271
                       0.0128964      -0.0206598         0.800877      -0.0467391      0.000382893     3.62323e-05
                    -6.38579e-05     0.000418527      0.000380075     3.61744e-05         0.817265       0.0444882
5.011                   0.810474       -0.050689        0.0127513      -0.0207149     -4.98084e-05     0.000413862
                       0.0127664      -0.0207326         0.800732      -0.0469261      0.000382414     2.87876e-05
                    -5.83234e-05     0.000418552      0.000379621     2.88831e-05         0.817832       0.0440204
5.012                   0.810269       -0.050941        0.0126228      -0.0207871     -4.46726e-05     0.000413411
                       0.0126368      -0.0208055         0.800583      -0.0471134      0.000381759     2.13734e-05
                    -5.28371e-05     0.000418511         0.000379     2.16194e-05         0.818391       0.0435489
5.013                    0.81006       -0.051193        0.0124946      -0.0208596     -3.96039e-05     0.000412921
                       0.0125075      -0.0208785         0.800431      -0.0473011      0.000380931      1.3995e-05
                       -4.74e-05     0.000418408      0.000378213     1.43881e-05         0.818942       0.0430737
5.014                   0.809847       -0.051445        0.0123668      -0.0209323     -3.46018e-05     0.000412395
                       0.0123785      -0.0209518         0.800275       -0.047489       0.00037993     6.65756e-06
                    -4.20129e-05     0.000418245      0.000377261     7.19409e-06         0.819485       0.0425949
5.015                    0.80963       -0.051697        0.0122391      -0.0210053     -2.96654e-05     0.000411838
                       0.0122497      -0.0210252         0.800116      -0.0476772      0.000378757    -6.33782e-07
                    -3.66765e-05     0.000418026      0.000376144     4.20774e-08         0.820019       0.0421127
5.016                    0.80941       -0.051949        0.0121118      -0.0210786     -2.47939e-05     0.000411252
                       0.0121211      -0.0210989         0.799953      -0.0478656      0.000377414    -7.87389e-06
                    -3.13914e-05     0.000417753      0.000374863    -7.06311e-06         0.820545       0.0416272
5.017                   0.809185      -0.0522008        0.0119846      -0.0211523     -1.99861e-05     0.000410642
                       0.0119927      -0.0211729         0.799787      -0.0480541      0.000375903    -1.50577e-05
                    -2.61578e-05      0.00041743      0.000373421    -1.41167e-05         0.821064       0.0411384
5.018                   0.808957      -0.0524526        0.0118576      -0.0212263     -1.52407e-05     0.000410011
                       0.0118644      -0.0212472         0.799617      -0.0482428      0.000374224    -2.21802e-05
                    -2.09762e-05      0.00041706      0.000371818     -2.1114e-05         0.821574       0.0406465
5.019                   0.808724      -0.0527041        0.0117307      -0.0213007     -1.05564e-05     0.000409361
                       0.0117363      -0.0213218         0.799444      -0.0484315      0.000372381    -2.92364e-05
                    -1.58465e-05     0.000416645      0.000370056    -2.80504e-05         0.822077       0.0401515
5.02                    0.808488      -0.0529554        0.0116038      -0.0213755     -5.93152e-06     0.000408697
                       0.0116083      -0.0213967         0.799267      -0.0486203      0.000370376    -3.62215e-05
                    -1.07687e-05     0.000416189      0.000368138    -3.49212e-05         0.822571       0.0396536
5.021                   0.808248      -0.0532065        0.0114771      -0.0214508     -1.36443e-06     0.000408021
                       0.0114803       -0.021472         0.799087       -0.048809       0.00036821    -4.31306e-05
                    -5.74246e-06     0.000415695      0.000366064    -4.17217e-05         0.823058       0.0391528
5.022                   0.808004      -0.0534572        0.0113503      -0.0215265      3.14677e-06     0.000407336
                       0.0113523      -0.0215477         0.798904      -0.0489977      0.000365887    -4.99591e-05
                    -7.67542e-07     0.000415165      0.000363838    -4.84477e-05         0.823537       0.0386491
5.023                   0.807756      -0.0537077        0.0112235      -0.0216027      7.60398e-06     0.000406646
                       0.0112243      -0.0216238         0.798716      -0.0491863      0.000363409    -5.67023e-05
                     4.15671e-06     0.000414603      0.000361462    -5.50945e-05         0.824009       0.0381428
5.024                   0.807504      -0.0539577        0.0110967      -0.0216794      1.20094e-05     0.000405952
                       0.0110963      -0.0217004         0.798526      -0.0493748      0.000360779    -6.33557e-05
                     9.03089e-06     0.000414012      0.000358938    -6.16579e-05         0.824472       0.0376339
5.025                   0.807247      -0.0542073        0.0109697      -0.0217566      1.63654e-05     0.000405259
                       0.0109681      -0.0217774         0.798332      -0.0495631         0.000358    -6.99148e-05
                      1.3856e-05     0.000413395      0.000356268    -6.81336e-05         0.824928       0.0371224
5.026                   0.806987      -0.0544564        0.0108426      -0.0218343      2.06742e-05     0.000404568
                       0.0108399      -0.0218548         0.798134      -0.0497512      0.000355076    -7.63754e-05
                     1.86328e-05     0.000412754      0.000353457    -7.45174e-05         0.825376       0.0366084
5.027                   0.806722       -0.054705        0.0107153      -0.0219126      2.49383e-05     0.000403882
                       0.0107114      -0.0219328         0.797933       -0.049939      0.000352009    -8.27332e-05
                     2.33627e-05     0.000412093      0.000350506    -8.08052e-05         0.825817       0.0360921
5.028                   0.806454       -0.054953        0.0105877      -0.0219915      2.91605e-05     0.000403204
                       0.0105828      -0.0220113         0.797729      -0.0501267      0.000348804    -8.89842e-05
                     2.80469e-05     0.000411414      0.000347419    -8.69931e-05          0.82625       0.0355734
5.029                   0.806181      -0.0552004        0.0104598      -0.0220709      3.33433e-05     0.000402535
                       0.0104539      -0.0220903         0.797521       -0.050314      0.000345464    -9.51245e-05
                     3.26867e-05     0.000410719        0.0003442    -9.30771e-05         0.826676       0.0350525
5.03                    0.805904      -0.0554472        0.0103316       -0.022151      3.74897e-05     0.000401878
                       0.0103246      -0.0221698          0.79731      -0.0505009      0.000341992     -0.00010115
                      3.7284e-05     0.000410013       0.00034085    -9.90536e-05         0.827094       0.0345295
5.031                   0.805623      -0.0556932        0.0102031      -0.0222316      4.16026e-05     0.000401234
                       0.0101951      -0.0222499         0.797095      -0.0506875      0.000338393    -0.000107058
                     4.18402e-05     0.000409296      0.000337375    -0.000104919         0.827505       0.0340043
5.032                   0.805338      -0.0559384        0.0100741      -0.0223129      4.56849e-05     0.000400606
                       0.0100652      -0.0223306         0.796877      -0.0508738       0.00033467    -0.000112844
                     4.63574e-05     0.000408572      0.000333778    -0.000110669         0.827909       0.0334772
5.033                   0.805048      -0.0561828       0.00994459      -0.0223948      4.97399e-05     0.000399994
                      0.00993478      -0.0224118         0.796655      -0.0510595      0.000330829    -0.000118504
                     5.08374e-05     0.000407842      0.000330062    -0.000116302         0.828305       0.0329481
5.034                   0.804755      -0.0564264       0.00981459      -0.0224773      5.37706e-05     0.000399402
                      0.00980392      -0.0224936          0.79643      -0.0512449      0.000326872    -0.000124037
                     5.52826e-05      0.00040711      0.000326232    -0.000121813         0.828694        0.032417
5.035                   0.804457       -0.056669       0.00968401      -0.0225605      5.77804e-05     0.000398829
                      0.00967253       -0.022576         0.796202      -0.0514297      0.000322806    -0.000129438
                      5.9695e-05     0.000406376      0.000322291    -0.000127199         0.829076       0.0318842
5.036                   0.804154      -0.0569106       0.00955283      -0.0226443      6.17725e-05     0.000398277
                      0.00954057       -0.022659          0.79597      -0.0516141      0.000318633    -0.000134705
                      6.4077e-05     0.000405644      0.000318245    -0.000132459          0.82945       0.0313496
5.037                   0.803848      -0.0571512       0.00942095      -0.0227287      6.57505e-05     0.000397747
                      0.00940799      -0.0227427         0.795735      -0.0517979      0.000314359    -0.000139834
                     6.84312e-05     0.000404915      0.000314095    -0.000137588         0.829818       0.0308133
5.038                   0.803537      -0.0573907       0.00928836      -0.0228138      6.97176e-05     0.000397241
                      0.00927473      -0.0228269         0.795496      -0.0519811      0.000309988    -0.000144825
                     7.27601e-05     0.000404191      0.000309849    -0.000142584         0.830178       0.0302753
5.039                   0.803221      -0.0576291       0.00915498      -0.0228995      7.36774e-05     0.000396758
                      0.00914074      -0.0229118         0.795255      -0.0521638      0.000305526    -0.000149673
                     7.70664e-05     0.000403474      0.000305509    -0.000147445         0.830531       0.0297358
5.04                    0.802902      -0.0578662       0.00902078      -0.0229859      7.76334e-05     0.000396298
                      0.00900598      -0.0229972         0.795009      -0.0523458      0.000300976    -0.000154377
                     8.13529e-05     0.000402764       0.00030108    -0.000152168         0.830877       0.0291948
5.041                   0.802578      -0.0581021        0.0088857      -0.0230729      8.15892e-05     0.000395864
                      0.00887039      -0.0230833          0.79476      -0.0525272      0.000296345    -0.000158935
                     8.56224e-05     0.000402064      0.000296567    -0.000156751         0.831217       0.0286523
5.042                   0.802249      -0.0583366       0.00874969      -0.0231605      8.55483e-05     0.000395454
                      0.00873393        -0.02317         0.794508      -0.0527079      0.000291636    -0.000163345
                      8.9878e-05     0.000401374      0.000291974    -0.000161192         0.831549       0.0281084
5.043                   0.801916      -0.0585697       0.00861269      -0.0232488      8.95145e-05     0.000395069
                      0.00859654      -0.0232573         0.794253      -0.0528879      0.000286855    -0.000167606
                     9.41226e-05     0.000400696      0.000287307     -0.00016549         0.831874       0.0275632
5.044                   0.801579      -0.0588014       0.00847466      -0.0233377      9.34912e-05     0.000394708
                      0.00845817      -0.0233452         0.793994      -0.0530672      0.000282007    -0.000171715
                     9.83594e-05      0.00040003      0.000282569    -0.000169642         0.832192       0.0270166
5.045                   0.801237      -0.0590316       0.00833552      -0.0234272       9.7482e-05     0.000394371
                      0.00831875      -0.0234337         0.793731      -0.0532458      0.000277097    -0.000175672
                     0.000102592     0.000399378      0.000277767    -0.000173647         0.832504       0.0264689
5.046                   0.800891      -0.0592602       0.00819525      -0.0235173      0.000101491     0.000394057
                      0.00817826      -0.0235228         0.793466      -0.0534236       0.00027213    -0.000179475
                     0.000106822     0.000398739      0.000272904    -0.000177504         0.832809       0.0259199
5.047                    0.80054      -0.0594871       0.00805378      -0.0236079      0.000105521     0.000393767
                      0.00803662      -0.0236125         0.793196      -0.0536007      0.000267112    -0.000183124
                     0.000111055     0.000398114      0.000267985    -0.000181211         0.833107       0.0253699
5.048                   0.800185      -0.0597124       0.00791107      -0.0236992      0.000109576     0.000393498
                       0.0078938      -0.0237027         0.792924      -0.0537769      0.000262047    -0.000186617
                     0.000115293     0.000397504      0.000263017    -0.000184768         0.833398       0.0248187
5.049                   0.799825      -0.0599358       0.00776704      -0.0237909      0.000113659     0.000393251
                      0.00774972      -0.0237935         0.792648      -0.0539523      0.000256941    -0.000189955
                     0.000119539     0.000396908      0.000258002    -0.000188174         0.833682       0.0242665
5.05                    0.799461      -0.0601574       0.00762166      -0.0238833      0.000117775     0.000393023
                      0.00760434      -0.0238848         0.792368      -0.0541268      0.000251799    -0.000193137
                     0.000123797     0.000396326      0.000252948    -0.000191428          0.83396       0.0237134
5.051                   0.799093      -0.0603771       0.00747487      -0.0239761      0.000121926     0.000392813
                       0.0074576      -0.0239767         0.792086      -0.0543005      0.000246626    -0.000196162
                     0.000128071     0.000395759      0.000247857    -0.000194529         0.834231       0.0231593
5.052                   0.798719      -0.0605948       0.00732661      -0.0240694      0.000126117     0.000392619
                      0.00730945       -0.024069         0.791799      -0.0544733      0.000241427    -0.000199031
                     0.000132363     0.000395205      0.000242737    -0.000197478         0.834496       0.0226044
5.053                   0.798341      -0.0608104       0.00717683      -0.0241632      0.000130349     0.000392441
                      0.00715984      -0.0241618          0.79151      -0.0546451      0.000236207    -0.000201743
                     0.000136677     0.000394663      0.000237591    -0.000200275         0.834754       0.0220486
5.054                   0.797959      -0.0610239       0.00702549      -0.0242574      0.000134627     0.000392275
                      0.00700871      -0.0242551         0.791216       -0.054816      0.000230973      -0.0002043
                     0.000141017     0.000394134      0.000232424    -0.000202918         0.835005       0.0214921
5.055                   0.797572      -0.0612353       0.00687252       -0.024352      0.000138955     0.000392121
                      0.00685601      -0.0243488          0.79092      -0.0549859      0.000225727    -0.000206702
                     0.000145386     0.000393615      0.000227242     -0.00020541          0.83525       0.0209348
5.056                   0.797181      -0.0614443       0.00671788       -0.024447      0.000143334     0.000391975
                      0.00670169      -0.0244429         0.790619      -0.0551548      0.000220477    -0.000208949
                     0.000149788     0.000393106      0.000222049    -0.000207749         0.835489       0.0203768
5.057                   0.796785       -0.061651       0.00656152      -0.0245423      0.000147769     0.000391835
                      0.00654567      -0.0245374         0.790316      -0.0553227      0.000215227    -0.000211042
                     0.000154225     0.000392606      0.000216851    -0.000209938         0.835721       0.0198182
5.058                   0.796384      -0.0618552       0.00640337       -0.024638      0.000152262     0.000391698
                      0.00638794      -0.0246322         0.790009      -0.0554896      0.000209981    -0.000212983
                     0.000158701     0.000392112      0.000211652    -0.000211975         0.835946       0.0192591
5.059                   0.795979       -0.062057       0.00624341      -0.0247339      0.000156816     0.000391562
                      0.00622843      -0.0247273         0.789698      -0.0556553      0.000204745    -0.000214773
                     0.000163219     0.000391623      0.000206457    -0.000213863         0.836165       0.0186994
5.06                    0.795569      -0.0622561       0.00608156      -0.0248301      0.000161435     0.000391425
                      0.00606707      -0.0248227         0.789384        -0.05582      0.000199523    -0.000216412
                     0.000167783     0.000391137      0.000201272    -0.000215603         0.836378       0.0181391
5.061                   0.795155      -0.0624526       0.00591779      -0.0249265       0.00016612     0.000391282
                      0.00590382      -0.0249183         0.789066      -0.0559835      0.000194321    -0.000217904
                     0.000172395     0.000390652        0.0001961    -0.000217196         0.836584       0.0175785
5.062                   0.794736      -0.0626464       0.00575205      -0.0250231      0.000170874      0.00039113
                      0.00573865      -0.0250142         0.788744      -0.0561459      0.000189143    -0.000219248
                     0.000177059     0.000390166      0.000190946    -0.000218642         0.836784       0.0170174
5.063                   0.794312      -0.0628373       0.00558427      -0.0251197      0.000175701     0.000390967
                      0.00557149      -0.0251102         0.788419      -0.0563071      0.000183993    -0.000220449
                     0.000181778     0.000389676      0.000185815    -0.000219945         0.836978        0.016456
5.064                   0.793884      -0.0630253       0.00541443      -0.0252165      0.000180601     0.000390789
                      0.00540228      -0.0252063         0.788091      -0.0564671      0.000178877    -0.000221506
                     0.000186555     0.000389179      0.000180712    -0.000221105         0.837166       0.0158942
5.065                   0.793452      -0.0632104       0.00524247      -0.0253133      0.000185578     0.000390592
                      0.00523098      -0.0253025         0.787758      -0.0566258      0.000173798    -0.000222424
                     0.000191392     0.000388672      0.000175641    -0.000222126         0.837347       0.0153322
5.066                   0.793014      -0.0633923       0.00506835      -0.0254101      0.000190634     0.000390372
                      0.00505755      -0.0253987         0.787423      -0.0567832      0.000168761    -0.000223203
                     0.000196292     0.000388154      0.000170606    -0.000223007         0.837522       0.0147699
5.067                   0.792573      -0.0635711       0.00489201      -0.0255068       0.00019577     0.000390126
                      0.00488196      -0.0254949         0.787083      -0.0569394      0.000163771    -0.000223847
                     0.000201259     0.000387619      0.000165613    -0.000223753         0.837691       0.0142075
5.068                   0.792126      -0.0637467       0.00471343      -0.0256034      0.000200988     0.000389849
                      0.00470411       -0.025591          0.78674      -0.0570942      0.000158831    -0.000224358
                     0.000206293     0.000387066      0.000160664    -0.000224365         0.837854       0.0136449
5.069                   0.791675      -0.0639189       0.00453256      -0.0256998       0.00020629     0.000389538
                      0.00452401       -0.025687         0.786393      -0.0572475      0.000153945     -0.00022474
                     0.000211398     0.000386491      0.000155764    -0.000224845         0.838011       0.0130822
5.07                     0.79122      -0.0640877       0.00434934       -0.025796      0.000211678     0.000389188
                      0.00434157      -0.0257828         0.786042      -0.0573995      0.000149117    -0.000224994
                     0.000216577     0.000385889      0.000150917    -0.000225198         0.838162       0.0125195
5.071                    0.79076       -0.064253       0.00416375      -0.0258919      0.000217152     0.000388794
                      0.00415678      -0.0258784         0.785687        -0.05755      0.000144352    -0.000225124
                      0.00022183     0.000385258      0.000146128    -0.000225424         0.838306       0.0119567
5.072                   0.790296      -0.0644147       0.00397574      -0.0259875      0.000222714     0.000388354
                      0.00396959      -0.0259737         0.785329       -0.057699      0.000139652    -0.000225133
                      0.00022716     0.000384593      0.000141399    -0.000225528         0.838445        0.011394
5.073                   0.789827      -0.0645728       0.00378528      -0.0260828      0.000228366     0.000387861
                      0.00377995      -0.0260687         0.784967      -0.0578465      0.000135022    -0.000225025
                     0.000232569      0.00038389      0.000136734    -0.000225511         0.838578       0.0108313
5.074                   0.789353       -0.064727       0.00359234      -0.0261775      0.000234106     0.000387311
                      0.00358784      -0.0261633         0.784601      -0.0579923      0.000130465    -0.000224802
                     0.000238059     0.000383145      0.000132138    -0.000225379         0.838704       0.0102687
5.075                   0.788876      -0.0648774       0.00339685      -0.0262717      0.000239938       0.0003867
                       0.0033932      -0.0262573         0.784231      -0.0581366      0.000125983    -0.000224469
                      0.00024363     0.000382354      0.000127613    -0.000225132         0.838825      0.00970628
5.076                   0.788393      -0.0650238       0.00319882      -0.0263654       0.00024586     0.000386023
                        0.003196      -0.0263509         0.783857      -0.0582791      0.000121581    -0.000224029
                     0.000249285     0.000381512      0.000123163    -0.000224776          0.83894      0.00914404
5.077                   0.787907      -0.0651661       0.00299819      -0.0264584      0.000251873     0.000385275
                      0.00299621      -0.0264439         0.783479      -0.0584199       0.00011726    -0.000223486
                     0.000255024     0.000380615       0.00011879    -0.000224314         0.839049      0.00858203
5.078                   0.787416      -0.0653043       0.00279494      -0.0265507      0.000257977     0.000384451
                       0.0027938      -0.0265361         0.783097       -0.058559      0.000113025    -0.000222843
                     0.000260848     0.000379657      0.000114499    -0.000223749         0.839152      0.00802028
5.079                    0.78692      -0.0654382       0.00258904      -0.0266422      0.000264172     0.000383546
                      0.00258872      -0.0266277         0.782712      -0.0586962      0.000108877    -0.000222104
                     0.000266759     0.000378636      0.000110291    -0.000223084         0.839249      0.00745884
5.08                    0.786421      -0.0655678       0.00238045      -0.0267329      0.000270457     0.000382556
                      0.00238095      -0.0267184         0.782322      -0.0588315      0.000104819    -0.000221274
                     0.000272756     0.000377544       0.00010617    -0.000222324          0.83934      0.00689774
5.081                   0.785917       -0.065693       0.00216915      -0.0268226      0.000276833     0.000381474
                      0.00217047      -0.0268083         0.781928      -0.0589649      0.000100854    -0.000220356
                      0.00027884     0.000376378      0.000102139    -0.000221473         0.839426      0.00633703
5.082                   0.785408      -0.0658136       0.00195512      -0.0269113      0.000283298     0.000380297
                      0.00195724      -0.0268972          0.78153      -0.0590962      9.69832e-05    -0.000219355
                     0.000285011     0.000375132      9.81985e-05    -0.000220534         0.839506      0.00577675
5.083                   0.784896      -0.0659296       0.00173834       -0.026999      0.000289851     0.000379018
                      0.00174124      -0.0269851         0.781128      -0.0592256      9.32097e-05    -0.000218274
                     0.000291269     0.000373801      9.43523e-05    -0.000219512          0.83958      0.00521692
5.084                   0.784379      -0.0660409       0.00151879      -0.0270855      0.000296492     0.000377633
                      0.00152244      -0.0270719         0.780722      -0.0593528      8.95349e-05    -0.000217119
                     0.000297614     0.000372381      9.06022e-05     -0.00021841         0.839648      0.00465758
5.085                   0.783858      -0.0661473       0.00129643      -0.0271708      0.000303219     0.000376137