! TOUCHSTONE file generated by CST MICROWAVE STUDIO
! Date and time: Sun Sep 27 04:05:56 2020
! Project name: Gustave Lung Lower Right.cst
! Header version: 2018
! Port assignment regex: !\s*Touchstone port\s*([0-9]+)\s*=\s*(CST MWS port|CST DS port)\s*([0-9]+|Zmin|Zmax)\s*\(\"(.*)\"\)(\s*mode\s*([0-9]+))?.*
! Touchstone port assignment:
! Touchstone port 1 = CST MWS port 1 ("")
! Touchstone port 2 = CST MWS port 2 ("")
! Touchstone port 3 = CST MWS port 3 ("")
# GHz S RI R 50
5                       0.794674      -0.0113322       0.00508258     -0.00493241     -0.000364693    -0.000535046
                      0.00508295     -0.00489389         0.796183      -0.0469956     -0.000423366    -0.000502544
                    -0.000347724    -0.000565078     -0.000426711    -0.000493529         0.710815       -0.160338
5.001                   0.794744      -0.0113156       0.00500731     -0.00499551     -0.000374114    -0.000528885
                      0.00501007     -0.00495743          0.79601      -0.0469377     -0.000433432    -0.000494726
                    -0.000359138    -0.000559743     -0.000436194    -0.000485579          0.70906        -0.16007
5.002                   0.794813       -0.011301       0.00493139      -0.0050573     -0.000383464    -0.000522571
                      0.00493648      -0.0050198         0.795839      -0.0468799     -0.000443389    -0.000486619
                    -0.000370519    -0.000554127     -0.000445565    -0.000477376         0.707294        -0.15978
5.003                   0.794881      -0.0112885       0.00485485     -0.00511779     -0.000392744    -0.000516105
                      0.00486221     -0.00508101         0.795668      -0.0468223     -0.000453225    -0.000478221
                    -0.000381858    -0.000548228     -0.000454814    -0.000468919         0.705518       -0.159469
5.004                   0.794949       -0.011278       0.00477773     -0.00517698     -0.000401952    -0.000509484
                      0.00478729     -0.00514105         0.795499      -0.0467648     -0.000462929    -0.000469532
                    -0.000393145    -0.000542043      -0.00046393    -0.000460208         0.703731       -0.159136
5.005                   0.795017      -0.0112695       0.00470006     -0.00523487     -0.000411087    -0.000502707
                      0.00471175     -0.00519992         0.795331      -0.0467075     -0.000472487    -0.000460552
                    -0.000404372     -0.00053557     -0.000472905    -0.000451241         0.701933       -0.158781
5.006                   0.795083       -0.011263       0.00462188     -0.00529147     -0.000420148    -0.000495774
                      0.00463561     -0.00525762         0.795165      -0.0466504     -0.000481887     -0.00045128
                    -0.000415529    -0.000528809     -0.000481727     -0.00044202         0.700126       -0.158402
5.007                   0.795149      -0.0112584       0.00454321     -0.00534678     -0.000429133    -0.000488683
                      0.00455889     -0.00531414         0.794999      -0.0465936     -0.000491117    -0.000441719
                    -0.000426607    -0.000521759     -0.000490386    -0.000432543         0.698308          -0.158
5.008                   0.795215      -0.0112558       0.00446409     -0.00540081     -0.000438041    -0.000481432
                      0.00448162     -0.00536949         0.794835      -0.0465371     -0.000500164    -0.000431869
                    -0.000437595    -0.000514419     -0.000498872    -0.000422812         0.696482       -0.157574
5.009                   0.795279      -0.0112551       0.00438454     -0.00545356     -0.000446869    -0.000474019
                      0.00440383     -0.00542367         0.794672      -0.0464809     -0.000509014    -0.000421733
                    -0.000448483    -0.000506789     -0.000507173     -0.00041283         0.694646       -0.157124
5.01                    0.795343      -0.0112564        0.0043046     -0.00550506     -0.000455617    -0.000466444
                      0.00432553     -0.00547668         0.794509      -0.0464251     -0.000517655    -0.000411315
                    -0.000459264    -0.000498869     -0.000515278    -0.000402597         0.692801       -0.156649
5.011                   0.795405      -0.0112595       0.00422429      -0.0055553     -0.000464282    -0.000458704
                      0.00424676     -0.00552853         0.794348      -0.0463696     -0.000526074    -0.000400618
                    -0.000469926    -0.000490661     -0.000523177    -0.000392117         0.690947       -0.156149
5.012                   0.795467      -0.0112644       0.00414364     -0.00560431     -0.000472861    -0.000450797
                      0.00416754     -0.00557921         0.794188      -0.0463146     -0.000534257    -0.000389646
                    -0.000480459    -0.000482165     -0.000530858    -0.000381392         0.689086       -0.155624
5.013                   0.795528      -0.0112712       0.00406268     -0.00565208     -0.000481353    -0.000442721
                      0.00408788     -0.00562873         0.794029        -0.04626     -0.000542191    -0.000378405
                    -0.000490855    -0.000473382     -0.000538309    -0.000370428         0.687216       -0.155072
5.014                   0.795588      -0.0112798       0.00398143     -0.00569865     -0.000489753    -0.000434475
                      0.00400781      -0.0056771         0.793871      -0.0462059     -0.000549865      -0.0003669
                    -0.000501102    -0.000464316     -0.000545519    -0.000359228         0.685339       -0.154493
5.015                   0.795647      -0.0112902       0.00389992     -0.00574401     -0.000498061    -0.000426057
                      0.00392735     -0.00572433         0.793714      -0.0461522     -0.000557264    -0.000355139
                    -0.000511193    -0.000454967     -0.000552478    -0.000347798         0.683454       -0.153888
5.016                   0.795705      -0.0113023       0.00381816     -0.00578818     -0.000506271    -0.000417464
                      0.00384653     -0.00577041         0.793557      -0.0460991     -0.000564376    -0.000343128
                    -0.000521116    -0.000445339     -0.000559174    -0.000336143         0.681562       -0.153255
5.017                   0.795762      -0.0113161       0.00373619     -0.00583119     -0.000514381    -0.000408694
                      0.00376535     -0.00581536         0.793402      -0.0460465     -0.000571189    -0.000330877
                    -0.000530863    -0.000435435     -0.000565596    -0.000324269         0.679664       -0.152594
5.018                   0.795817      -0.0113316       0.00365401     -0.00587305     -0.000522387    -0.000399746
                      0.00368385     -0.00585919         0.793247      -0.0459945     -0.000577691    -0.000318392
                    -0.000540423    -0.000425259     -0.000571733    -0.000312185          0.67776       -0.151905
5.019                   0.795872      -0.0113488       0.00357166     -0.00591376     -0.000530284    -0.000390619
                      0.00360204      -0.0059019         0.793094       -0.045943     -0.000583869    -0.000305685
                    -0.000549789    -0.000414812     -0.000577574    -0.000299896         0.675851       -0.151188
5.02                    0.795925      -0.0113676       0.00348914     -0.00595336      -0.00053807    -0.000381308
                      0.00351994      -0.0059435         0.792941      -0.0458921     -0.000589713    -0.000292764
                     -0.00055895    -0.000404101     -0.000583109    -0.000287413         0.673936       -0.150441
5.021                   0.795977       -0.011388       0.00340647     -0.00599186     -0.000545739    -0.000371814
                      0.00343757     -0.00598401         0.792789      -0.0458419      -0.00059521    -0.000279641
                    -0.000567897    -0.000393129     -0.000588327    -0.000274743         0.672016       -0.149664
5.022                   0.796028      -0.0114099       0.00332368     -0.00602927     -0.000553287    -0.000362134
                      0.00335493     -0.00602343         0.792637      -0.0457923      -0.00060035    -0.000266328
                    -0.000576622    -0.000381902     -0.000593218    -0.000261896         0.670092       -0.148858
5.023                   0.796078      -0.0114334       0.00324077     -0.00606561     -0.000560708    -0.000352268
                      0.00327206     -0.00606177         0.792486      -0.0457433     -0.000605124    -0.000252836
                    -0.000585115    -0.000370424     -0.000597773    -0.000248882         0.668165       -0.148021
5.024                   0.796126      -0.0114584       0.00315775      -0.0061009     -0.000567998    -0.000342212
                      0.00318895     -0.00609904         0.792336      -0.0456951      -0.00060952    -0.000239178
                    -0.000593369    -0.000358701     -0.000601982    -0.000235713         0.666234       -0.147153
5.025                   0.796173      -0.0114849       0.00307464     -0.00613517     -0.000575151    -0.000331966
                      0.00310563     -0.00613526         0.792187      -0.0456475     -0.000613529    -0.000225368
                    -0.000601374    -0.000346738     -0.000605837    -0.000222399           0.6643       -0.146254
5.026                   0.796219      -0.0115128       0.00299145     -0.00616842      -0.00058216    -0.000321529
                      0.00302212     -0.00617043         0.792038      -0.0456006     -0.000617144    -0.000211419
                    -0.000609123    -0.000334542     -0.000609328    -0.000208953         0.662364       -0.145324
5.027                   0.796263       -0.011542       0.00290818     -0.00620067     -0.000589021    -0.000310899
                      0.00293841     -0.00620456          0.79189      -0.0455544     -0.000620355    -0.000197347
                    -0.000616608    -0.000322119     -0.000612449    -0.000195386         0.660426       -0.144361
5.028                   0.796306      -0.0115727       0.00282485     -0.00623196     -0.000595727    -0.000300076
                      0.00285453     -0.00623767         0.791743      -0.0455089     -0.000623155    -0.000183165
                     -0.00062382    -0.000309475      -0.00061519    -0.000181712         0.658488       -0.143366
5.029                   0.796347      -0.0116046       0.00274146     -0.00626228     -0.000602271     -0.00028906
                      0.00277048     -0.00626977         0.791596      -0.0454642     -0.000625538    -0.000168891
                    -0.000630752    -0.000296618     -0.000617546    -0.000167945         0.656548       -0.142339
5.03                    0.796387      -0.0116378       0.00265801     -0.00629166     -0.000608646    -0.000277849
                      0.00268627     -0.00630087         0.791449      -0.0454202     -0.000627497    -0.000154538
                    -0.000637398    -0.000283554      -0.00061951    -0.000154098         0.654609       -0.141278
5.031                   0.796426      -0.0116723       0.00257451     -0.00632011     -0.000614845    -0.000266444
                      0.00260191     -0.00633098         0.791303       -0.045377     -0.000629026    -0.000140125
                    -0.000643749    -0.000270291     -0.000621076    -0.000140186         0.652671       -0.140184
5.032                   0.796463       -0.011708       0.00249097     -0.00634766     -0.000620862    -0.000254844
                      0.00251741     -0.00636011         0.791157      -0.0453346     -0.000630122    -0.000125668
                    -0.000649799    -0.000256837     -0.000622239    -0.000126224         0.650733       -0.139056
5.033                   0.796499      -0.0117448       0.00240738     -0.00637431     -0.000626688    -0.000243051
                      0.00243278     -0.00638828         0.791012      -0.0452929     -0.000630779    -0.000111184
                    -0.000655541    -0.000243199     -0.000622995    -0.000112227         0.648798       -0.137893
5.034                   0.796533      -0.0117828       0.00232374     -0.00640009     -0.000632317    -0.000231064
                      0.00234802     -0.00641549         0.790867       -0.045252     -0.000630996    -9.66909e-05
                    -0.000660969    -0.000229385     -0.000623339    -9.82113e-05         0.646866       -0.136697
5.035                   0.796565      -0.0118218       0.00224005     -0.00642501     -0.000637739    -0.000218885
                      0.00226313     -0.00644175         0.790722      -0.0452119      -0.00063077    -8.22059e-05
                    -0.000666077    -0.000215404     -0.000623269    -8.41921e-05         0.644936       -0.135466
5.036                   0.796596      -0.0118619       0.00215632     -0.00644908     -0.000642947    -0.000206515
                      0.00217813     -0.00646708         0.790578      -0.0451727       -0.0006301    -6.77474e-05
                    -0.000670859    -0.000201264     -0.000622783     -7.0186e-05         0.643011       -0.134199
5.037                   0.796625       -0.011903       0.00207254     -0.00647232     -0.000647933    -0.000193956
                      0.00209302     -0.00649148         0.790434      -0.0451342     -0.000628984    -5.33333e-05
                    -0.000675309    -0.000186974     -0.000621879    -5.62093e-05         0.641091       -0.132897
5.038                   0.796653       -0.011945       0.00198871     -0.00649474     -0.000652688     -0.00018121
                      0.00200779     -0.00651498          0.79029      -0.0450965     -0.000627425    -3.89825e-05
                    -0.000679422    -0.000172542     -0.000620557    -4.22792e-05         0.639175        -0.13156
5.039                    0.79668       -0.011988       0.00190482     -0.00651635     -0.000657204     -0.00016828
                      0.00192246     -0.00653756         0.790147      -0.0450596     -0.000625422    -2.47129e-05
                    -0.000683194    -0.000157977     -0.000618816    -2.84124e-05         0.637266       -0.130187
5.04                    0.796704      -0.0120318       0.00182087     -0.00653716     -0.000661472    -0.000155167
                      0.00183702     -0.00655925         0.790003      -0.0450236     -0.000622979    -1.05433e-05
                    -0.000686618    -0.000143289     -0.000616657     -1.4626e-05         0.635364       -0.128778
5.041                   0.796727      -0.0120765       0.00173685     -0.00655718     -0.000665484    -0.000141877
                      0.00175147     -0.00658005          0.78986      -0.0449883     -0.000620098     3.50807e-06
                    -0.000689691    -0.000128486     -0.000614083    -9.37339e-07          0.63347       -0.127332
5.042                   0.796749      -0.0121219       0.00165276     -0.00657643     -0.000669229    -0.000128412
                      0.00166582     -0.00659998         0.789717      -0.0449539     -0.000616783     1.74225e-05
                    -0.000692409    -0.000113579     -0.000611095     1.26369e-05         0.631584        -0.12585
5.043                   0.796768      -0.0121681       0.00156859     -0.00659491       -0.0006727    -0.000114776
                      0.00158006     -0.00661903         0.789574      -0.0449202      -0.00061304     3.11823e-05
                    -0.000694767    -9.85757e-05     -0.000607698     2.60792e-05         0.629708       -0.124331
5.044                   0.796786       -0.012215       0.00148433     -0.00661263     -0.000675887    -0.000100974
                      0.00149419     -0.00663721         0.789431      -0.0448875     -0.000608875     4.47687e-05
                    -0.000696762     -8.3487e-05     -0.000603896     3.93724e-05         0.627842       -0.122775
5.045                   0.796803      -0.0122626       0.00139997     -0.00662959     -0.000678782    -8.70117e-05
                      0.00140822     -0.00665454         0.789288      -0.0448555     -0.000604294     5.81641e-05
                     -0.00069839    -6.83221e-05     -0.000599694     5.24998e-05         0.625986       -0.121182
5.046                   0.796818      -0.0123108       0.00131552      -0.0066458     -0.000681375    -7.28941e-05
                      0.00132213     -0.00667101         0.789145      -0.0448243     -0.000599306      7.1351e-05
                    -0.000699648    -5.30909e-05     -0.000595098     6.54444e-05         0.624143       -0.119552
5.047                   0.796831      -0.0123596       0.00123094     -0.00666126     -0.000683658    -5.86275e-05
                      0.00123594     -0.00668664         0.789002      -0.0447939     -0.000593919     8.43119e-05
                    -0.000700534    -3.78032e-05     -0.000590116     7.81897e-05         0.622312       -0.117885
5.048                   0.796843      -0.0124089       0.00114625     -0.00667598     -0.000685621    -4.42183e-05
                      0.00114963     -0.00670142         0.788858      -0.0447643     -0.000588142     9.70297e-05
                    -0.000701044    -2.24694e-05     -0.000584755     9.07191e-05         0.620494        -0.11618
5.049                   0.796852      -0.0124587       0.00106143     -0.00668997     -0.000687255    -2.96738e-05
                       0.0010632     -0.00671536         0.788715      -0.0447356     -0.000581987     0.000109488
                    -0.000701176    -7.09924e-06     -0.000579025     0.000103017         0.618691       -0.114438
5.05                    0.796861      -0.0125089      0.000976463     -0.00670321     -0.000688553    -1.50016e-05
                     0.000976646     -0.00672846         0.788572      -0.0447076     -0.000575466     0.000121671
                    -0.000700928     8.29695e-06     -0.000572934     0.000115067         0.616904       -0.112658
5.051                   0.796867      -0.0125595      0.000891349     -0.00671571     -0.000689505    -2.09606e-07
                     0.000889972     -0.00674073         0.788428      -0.0446804     -0.000568589     0.000133563
                    -0.000700299     2.37091e-05     -0.000566493     0.000126854         0.615132       -0.110841
5.052                   0.796872      -0.0126106      0.000806079     -0.00672747     -0.000690102     1.46935e-05
                     0.000803166     -0.00675216         0.788284      -0.0446541      -0.00056137     0.000145149
                    -0.000699286     3.91265e-05     -0.000559713     0.000138364         0.613378       -0.108986
5.053                   0.796876      -0.0126619      0.000720638     -0.00673849     -0.000690337     2.96981e-05
                     0.000716228     -0.00676275         0.788141      -0.0446285     -0.000553824     0.000156415
                    -0.000697889     5.45391e-05     -0.000552607     0.000149582         0.611642       -0.107093
5.054                   0.796878      -0.0127135      0.000635022     -0.00674876     -0.000690202     4.47954e-05
                     0.000629152     -0.00677251         0.787996      -0.0446036     -0.000545964     0.000167346
                    -0.000696107     6.99362e-05     -0.000545188     0.000160494         0.609925       -0.105163
5.055                   0.796878      -0.0127654      0.000549217     -0.00675828     -0.000689689     5.99745e-05
                     0.000541935     -0.00678144         0.787852      -0.0445796     -0.000537807     0.000177931
                    -0.000693938     8.53077e-05     -0.000537468     0.000171087         0.608228       -0.103196
5.056                   0.796876      -0.0128175      0.000463216     -0.00676704      -0.00068879      7.5225e-05
                     0.000454571     -0.00678953         0.787707      -0.0445563     -0.000529368     0.000188157
                    -0.000691382     0.000100643     -0.000529463     0.000181349         0.606551       -0.101191
5.057                   0.796873      -0.0128697      0.000377011     -0.00677504     -0.000687498     9.05355e-05
                     0.000367058     -0.00679677         0.787562      -0.0445337     -0.000520664     0.000198013
                     -0.00068844      0.00011593     -0.000521188     0.000191268         0.604897      -0.0991483
5.058                   0.796869      -0.0129221      0.000290592     -0.00678227     -0.000685806     0.000105895
                      0.00027939     -0.00680318         0.787417      -0.0445119     -0.000511712     0.000207488
                    -0.000685111     0.000131161     -0.000512657     0.000200833         0.603266      -0.0970689
5.059                   0.796863      -0.0129745      0.000203952     -0.00678871     -0.000683708      0.00012129
                     0.000191569     -0.00680873         0.787271      -0.0444908     -0.000502531     0.000216572
                    -0.000681395     0.000146322     -0.000503887     0.000210033         0.601658      -0.0949526
5.06                    0.796855       -0.013027      0.000117084     -0.00679437     -0.000681199     0.000136709
                     0.000103583     -0.00681343         0.787125      -0.0444705     -0.000493138     0.000225257
                    -0.000677293     0.000161405     -0.000494896     0.000218859         0.600076      -0.0927995
5.061                   0.796846      -0.0130795      2.99829e-05     -0.00679923     -0.000678271     0.000152139
                     1.54307e-05     -0.00681727         0.786978      -0.0444509     -0.000483553     0.000233535
                    -0.000672806     0.000176398       -0.0004857     0.000227302         0.598519      -0.0906098
5.062                   0.796835       -0.013132     -5.73578e-05     -0.00680327     -0.000674921     0.000167565
                    -7.28882e-05     -0.00682024         0.786831      -0.0444319     -0.000473795       0.0002414
                    -0.000667936      0.00019129     -0.000476317     0.000235355         0.596989      -0.0883838
5.063                   0.796823      -0.0131845     -0.000144948     -0.00680649     -0.000671143     0.000182974
                    -0.000161381     -0.00682233         0.786683      -0.0444137     -0.000463884     0.000248844
                    -0.000662683      0.00020607     -0.000466766     0.000243011         0.595487      -0.0861219
5.064                   0.796809      -0.0132368     -0.000232791     -0.00680887     -0.000666934     0.000198352
                    -0.000250048     -0.00682355         0.786535      -0.0443961     -0.000453839     0.000255865
                     -0.00065705     0.000220728     -0.000457065     0.000250264         0.594014      -0.0838243
5.065                   0.796794       -0.013289     -0.000320886     -0.00681039     -0.000662289     0.000213684
                    -0.000338889     -0.00682387         0.786386      -0.0443792     -0.000443682     0.000262457
                    -0.000651038     0.000235253     -0.000447234     0.000257109         0.592571      -0.0814913
5.066                   0.796777      -0.0133411     -0.000409245     -0.00681105     -0.000657207     0.000228954
                    -0.000427906     -0.00682328         0.786237       -0.044363     -0.000433431     0.000268619
                    -0.000644651     0.000249633     -0.000437291     0.000263541         0.591159      -0.0791234
5.067                   0.796759       -0.013393     -0.000497862     -0.00681083     -0.000651684     0.000244148
                    -0.000517103     -0.00682179         0.786087      -0.0443474     -0.000423109     0.000274348
                     -0.00063789     0.000263858     -0.000427257     0.000269559         0.589779       -0.076721
5.068                    0.79674      -0.0134446     -0.000586742      -0.0068097     -0.000645719     0.000259248
                    -0.000606482     -0.00681937         0.785937      -0.0443324     -0.000412735     0.000279645
                    -0.000630759     0.000277917      -0.00041715      0.00027516         0.588431      -0.0742845
5.069                   0.796719      -0.0134961     -0.000675887     -0.00680766     -0.000639311      0.00027424
                    -0.000696039     -0.00681602         0.785786      -0.0443181      -0.00040233      0.00028451
                     -0.00062326     0.000291799      -0.00040699     0.000280344         0.587118      -0.0718144
5.07                    0.796697      -0.0135472     -0.000765296     -0.00680469      -0.00063246     0.000289107
                    -0.000785774     -0.00681172         0.785634      -0.0443044     -0.000391916     0.000288944
                    -0.000615399     0.000305493     -0.000396798      0.00028511          0.58584      -0.0693112
5.071                   0.796673       -0.013598     -0.000854966     -0.00680076     -0.000625166     0.000303833
                     -0.00087569     -0.00680645         0.785482      -0.0442912     -0.000381511     0.000292951
                    -0.000607178     0.000318988     -0.000386594      0.00028946         0.584598      -0.0667755
5.072                   0.796649      -0.0136485     -0.000944897     -0.00679585      -0.00061743     0.000318399
                    -0.000965777     -0.00680022         0.785329      -0.0442786     -0.000371137     0.000296534
                    -0.000598602     0.000332274     -0.000376396     0.000293396         0.583393      -0.0642077
5.073                   0.796623      -0.0136987      -0.00103508     -0.00678996     -0.000609255     0.000332791
                     -0.00105604     -0.00679299         0.785175      -0.0442666     -0.000360813     0.000299698
                    -0.000589675     0.000345339     -0.000366225     0.000296921         0.582226      -0.0616088
5.074                   0.796596      -0.0137485      -0.00112552     -0.00678306     -0.000600641      0.00034699
                     -0.00114647     -0.00678476         0.785021      -0.0442551      -0.00035056      0.00030245
                    -0.000580403     0.000358173     -0.000356099     0.000300041         0.581097      -0.0589789
5.075                   0.796567      -0.0137979       -0.0012162     -0.00677513     -0.000591594      0.00036098
                     -0.00123707     -0.00677552         0.784866      -0.0442442     -0.000340396     0.000304796
                    -0.000570791     0.000370764     -0.000346039      0.00030276         0.580009      -0.0563193
5.076                   0.796538      -0.0138468      -0.00130713     -0.00676615     -0.000582117     0.000374744
                     -0.00132782     -0.00676524          0.78471      -0.0442338     -0.000330342     0.000306744
                    -0.000560845     0.000383103     -0.000336063     0.000305085         0.578962      -0.0536303
5.077                   0.796507      -0.0138954      -0.00139828     -0.00675609     -0.000572215     0.000388264
                     -0.00141873     -0.00675392         0.784553      -0.0442238     -0.000320414     0.000308305
                     -0.00055057     0.000395178     -0.000326189     0.000307024         0.577956      -0.0509128
5.078                   0.796475      -0.0139434      -0.00148966     -0.00674495     -0.000561895     0.000401523
                     -0.00150979     -0.00674153         0.784396      -0.0442144     -0.000310631     0.000309487
                    -0.000539974     0.000406979     -0.000316435     0.000308585         0.576994      -0.0481676
5.079                   0.796442       -0.013991      -0.00158125      -0.0067327     -0.000551162     0.000414505
                     -0.00160098     -0.00672806         0.784237      -0.0442054     -0.000301011     0.000310303
                    -0.000529063     0.000418495     -0.000306819     0.000309777         0.576075      -0.0453956
5.08                    0.796408      -0.0140381      -0.00167305     -0.00671931     -0.000540024     0.000427192
                     -0.00169231      -0.0067135         0.784078      -0.0441968     -0.000291569     0.000310763
                    -0.000517844     0.000429717     -0.000297358     0.000310612         0.575201      -0.0425975
5.081                   0.796373      -0.0140847      -0.00176503     -0.00670478     -0.000528489     0.000439568
                     -0.00178375     -0.00669783         0.783918      -0.0441887     -0.000282323     0.000310882
                    -0.000506325     0.000440633     -0.000288067       0.0003111         0.574372      -0.0397741
5.082                   0.796337      -0.0141308      -0.00185718     -0.00668907     -0.000516568     0.000451617
                     -0.00187531     -0.00668103         0.783757       -0.044181     -0.000273286     0.000310672
                    -0.000494514     0.000451235     -0.000278964     0.000311253          0.57359      -0.0369267
5.083                     0.7963      -0.0141763       -0.0019495     -0.00667218     -0.000504268     0.000463322
                     -0.00196696     -0.00666308         0.783595      -0.0441737     -0.000264474     0.000310148
                    -0.000482419     0.000461511     -0.000270062     0.000311085         0.572855      -0.0340562
5.084                   0.796262      -0.0142214      -0.00204196     -0.00665407     -0.000491602     0.000474667
                      -0.0020587     -0.00664398         0.783432      -0.0441668     -0.000255899     0.000309325
                     -0.00047005     0.000471452     -0.000261376     0.000310609         0.572168      -0.0311632
5.085                   0.796223      -0.0142658      -0.00213454     -0.00663473     -0.000478581     0.000485638