! TOUCHSTONE file generated by CST MICROWAVE STUDIO
! Date and time: Sat Jun 27 17:15:19 2020
! Project name: Human Lung.cst
! Header version: 2018
! Port assignment regex: !\s*Touchstone port\s*([0-9]+)\s*=\s*(CST MWS port|CST DS port)\s*([0-9]+|Zmin|Zmax)\s*\(\"(.*)\"\)(\s*mode\s*([0-9]+))?.*
! Touchstone port assignment:
! Touchstone port 1 = CST MWS port 1 ("")
! Touchstone port 2 = CST MWS port 2 ("")
! Touchstone port 3 = CST MWS port 3 ("")
# GHz S RI R 50
5                        0.80488      -0.0475634       0.00196898      0.00505912      4.46387e-05    -6.08088e-05
                      0.00196898      0.00505912          0.80986      -0.0259834     -4.08798e-05    -4.04486e-05
                     4.46388e-05    -6.08087e-05     -4.08798e-05    -4.04487e-05         0.802605       0.0302601
5.001                   0.804676      -0.0476272       0.00200793      0.00505327      4.35234e-05    -6.16992e-05
                      0.00200792      0.00505327         0.809814      -0.0260844     -4.17551e-05    -3.95724e-05
                     4.35234e-05    -6.16991e-05     -4.17552e-05    -3.95724e-05         0.802964       0.0301047
5.002                   0.804471      -0.0476903       0.00204707      0.00504708      4.23886e-05    -6.25694e-05
                      0.00204706      0.00504708         0.809766      -0.0261858     -4.26087e-05    -3.86759e-05
                     4.23886e-05    -6.25692e-05     -4.26087e-05    -3.86759e-05          0.80332        0.029947
5.003                   0.804265      -0.0477525       0.00208639      0.00504055      4.12347e-05    -6.34189e-05
                      0.00208639      0.00504054         0.809717      -0.0262876     -4.34402e-05    -3.77598e-05
                     4.12347e-05    -6.34188e-05     -4.34402e-05    -3.77599e-05         0.803672       0.0297869
5.004                   0.804059      -0.0478139       0.00212591      0.00503366       4.0062e-05    -6.42473e-05
                       0.0021259      0.00503365         0.809667      -0.0263898     -4.42489e-05    -3.68248e-05
                      4.0062e-05    -6.42472e-05      -4.4249e-05    -3.68249e-05         0.804022       0.0296246
5.005                   0.803852      -0.0478745        0.0021656      0.00502641       3.8871e-05    -6.50542e-05
                       0.0021656       0.0050264         0.809616      -0.0264923     -4.50347e-05    -3.58715e-05
                      3.8871e-05    -6.50541e-05     -4.50347e-05    -3.58716e-05         0.804369         0.02946
5.006                   0.803645      -0.0479343       0.00220547      0.00501879       3.7662e-05     -6.5839e-05
                      0.00220546      0.00501878         0.809564      -0.0265951     -4.57969e-05    -3.49006e-05
                      3.7662e-05    -6.58389e-05     -4.57969e-05    -3.49006e-05         0.804713       0.0292933
5.007                   0.803436      -0.0479933        0.0022455       0.0050108      3.64355e-05    -6.66013e-05
                      0.00224549      0.00501079         0.809511      -0.0266983     -4.65352e-05    -3.39126e-05
                     3.64355e-05    -6.66011e-05     -4.65353e-05    -3.39127e-05         0.805053       0.0291243
5.008                   0.803227      -0.0480514       0.00228569      0.00500242      3.51918e-05    -6.73406e-05
                      0.00228569      0.00500241         0.809457      -0.0268018     -4.72494e-05    -3.29084e-05
                     3.51919e-05    -6.73405e-05     -4.72494e-05    -3.29084e-05         0.805391       0.0289533
5.009                   0.803018      -0.0481088       0.00232604      0.00499366      3.39315e-05    -6.80566e-05
                      0.00232604      0.00499365         0.809401      -0.0269057     -4.79389e-05    -3.18885e-05
                     3.39316e-05    -6.80565e-05     -4.79389e-05    -3.18886e-05         0.805726       0.0287801
5.01                    0.802808      -0.0481653       0.00236654       0.0049845       3.2655e-05    -6.87488e-05
                      0.00236653      0.00498449         0.809345      -0.0270098     -4.86035e-05    -3.08537e-05
                     3.26551e-05    -6.87487e-05     -4.86035e-05    -3.08538e-05         0.806058       0.0286049
5.011                   0.802597       -0.048221       0.00240718      0.00497494      3.13628e-05    -6.94167e-05
                      0.00240717      0.00497494         0.809287      -0.0271143     -4.92429e-05    -2.98047e-05
                     3.13628e-05    -6.94167e-05     -4.92429e-05    -2.98047e-05         0.806386       0.0284277
5.012                   0.802385      -0.0482759       0.00244795      0.00496498      3.00552e-05    -7.00601e-05
                      0.00244795      0.00496497         0.809229      -0.0272191     -4.98567e-05     -2.8742e-05
                     3.00553e-05      -7.006e-05     -4.98567e-05    -2.87421e-05         0.806712       0.0282484
5.013                   0.802173      -0.0483299       0.00248885       0.0049546       2.8733e-05    -7.06784e-05
                      0.00248885       0.0049546         0.809169      -0.0273241     -5.04448e-05    -2.76665e-05
                      2.8733e-05    -7.06783e-05     -5.04448e-05    -2.76666e-05         0.807035       0.0280673
5.014                   0.801961      -0.0483831       0.00252987      0.00494381      2.73964e-05    -7.12714e-05
                      0.00252987       0.0049438         0.809108      -0.0274294     -5.10068e-05    -2.65789e-05
                     2.73964e-05    -7.12713e-05     -5.10068e-05    -2.65789e-05         0.807355       0.0278841
5.015                   0.801747      -0.0484354       0.00257101      0.00493259       2.6046e-05    -7.18385e-05
                        0.002571      0.00493259         0.809046       -0.027535     -5.15426e-05    -2.54797e-05
                     2.60461e-05    -7.18384e-05     -5.15426e-05    -2.54798e-05         0.807672       0.0276991
5.016                   0.801533      -0.0484869       0.00261225      0.00492095      2.46824e-05    -7.23796e-05
                      0.00261224      0.00492095         0.808983      -0.0276409     -5.20519e-05    -2.43699e-05
                     2.46825e-05    -7.23795e-05     -5.20519e-05    -2.43699e-05         0.807986       0.0275122
5.017                   0.801319      -0.0485376       0.00265359      0.00490888      2.33061e-05    -7.28941e-05
                      0.00265358      0.00490887         0.808919       -0.027747     -5.25346e-05    -2.32499e-05
                     2.33062e-05    -7.28941e-05     -5.25346e-05      -2.325e-05         0.808297       0.0273235
5.018                   0.801104      -0.0485874       0.00269502      0.00489637      2.19177e-05    -7.33819e-05
                      0.00269501      0.00489636         0.808853      -0.0278534     -5.29904e-05    -2.21207e-05
                     2.19177e-05    -7.33818e-05     -5.29904e-05    -2.21207e-05         0.808606        0.027133
5.019                   0.800888      -0.0486364       0.00273653      0.00488341      2.05176e-05    -7.38425e-05
                      0.00273652      0.00488341         0.808787        -0.02796     -5.34193e-05    -2.09828e-05
                     2.05176e-05    -7.38424e-05     -5.34193e-05    -2.09829e-05         0.808911       0.0269406
5.02                    0.800672      -0.0486846       0.00277811      0.00487001      1.91064e-05    -7.42756e-05
                      0.00277811      0.00487001         0.808719      -0.0280668     -5.38211e-05    -1.98371e-05
                     1.91065e-05    -7.42755e-05     -5.38211e-05    -1.98371e-05         0.809214       0.0267466
5.021                   0.800455      -0.0487319       0.00281977      0.00485616      1.76848e-05     -7.4681e-05
                      0.00281976      0.00485616          0.80865      -0.0281739     -5.41957e-05    -1.86841e-05
                     1.76848e-05    -7.46809e-05     -5.41957e-05    -1.86841e-05         0.809514       0.0265507
5.022                   0.800238      -0.0487783       0.00286148      0.00484186      1.62532e-05    -7.50583e-05
                      0.00286147      0.00484185          0.80858      -0.0282812      -5.4543e-05    -1.75246e-05
                     1.62532e-05    -7.50583e-05     -5.45431e-05    -1.75246e-05         0.809811       0.0263532
5.023                    0.80002      -0.0488239       0.00290324       0.0048271      1.48123e-05    -7.54073e-05
                      0.00290324      0.00482709         0.808509      -0.0283886      -5.4863e-05    -1.63594e-05
                     1.48124e-05    -7.54073e-05     -5.48631e-05    -1.63594e-05         0.810105       0.0261541
5.024                   0.799801      -0.0488687       0.00294505      0.00481188      1.33627e-05    -7.57278e-05
                      0.00294504      0.00481187         0.808437      -0.0284963     -5.51556e-05     -1.5189e-05
                     1.33627e-05    -7.57277e-05     -5.51557e-05     -1.5189e-05         0.810396       0.0259532
5.025                   0.799582      -0.0489126       0.00298689      0.00479619       1.1905e-05    -7.60194e-05
                      0.00298688      0.00479619         0.808363      -0.0286041     -5.54208e-05    -1.40143e-05
                      1.1905e-05    -7.60194e-05     -5.54208e-05    -1.40144e-05         0.810685       0.0257508
5.026                   0.799363      -0.0489557       0.00302876      0.00478004      1.04397e-05     -7.6282e-05
                      0.00302875      0.00478004         0.808288      -0.0287122     -5.56586e-05     -1.2836e-05
                     1.04398e-05    -7.62819e-05     -5.56586e-05     -1.2836e-05          0.81097       0.0255467
5.027                   0.799142      -0.0489979       0.00307064      0.00476342      8.96754e-06    -7.65153e-05
                      0.00307064      0.00476342         0.808213      -0.0288204     -5.58689e-05    -1.16546e-05
                     8.96759e-06    -7.65152e-05     -5.58689e-05    -1.16546e-05         0.811253       0.0253411
5.028                   0.798922      -0.0490393       0.00311253      0.00474633      7.48912e-06    -7.67191e-05
                      0.00311253      0.00474632         0.808136      -0.0289287     -5.60518e-05     -1.0471e-05
                     7.48917e-06    -7.67191e-05     -5.60519e-05     -1.0471e-05         0.811534       0.0251339
5.029                   0.798701      -0.0490798       0.00315443      0.00472876      6.00507e-06    -7.68933e-05
                      0.00315442      0.00472875         0.808057      -0.0290372     -5.62075e-05    -9.28572e-06
                     6.00508e-06    -7.68932e-05     -5.62075e-05    -9.28574e-06         0.811811       0.0249252
5.03                    0.798479      -0.0491195       0.00319632      0.00471071      4.51591e-06    -7.70376e-05
                      0.00319631      0.00471071         0.807978      -0.0291458     -5.63358e-05    -8.09957e-06
                     4.51601e-06    -7.70375e-05     -5.63358e-05    -8.09958e-06         0.812086        0.024715
5.031                   0.798257      -0.0491583       0.00323818      0.00469219       3.0225e-06    -7.71519e-05
                      0.00323818      0.00469219         0.807897      -0.0292546     -5.64369e-05    -6.91319e-06
                     3.02251e-06    -7.71519e-05      -5.6437e-05    -6.91319e-06         0.812358       0.0245033
5.032                   0.798034      -0.0491963       0.00328003      0.00467319      1.52531e-06    -7.72361e-05
                      0.00328002      0.00467319         0.807816      -0.0293635      -5.6511e-05    -5.72722e-06
                     1.52532e-06    -7.72361e-05      -5.6511e-05    -5.72723e-06         0.812627       0.0242901
5.033                   0.797811      -0.0492334       0.00332184      0.00465371      2.50216e-08      -7.729e-05
                      0.00332183       0.0046537         0.807733      -0.0294725      -5.6558e-05    -4.54234e-06
                     2.50399e-08      -7.729e-05      -5.6558e-05    -4.54234e-06         0.812894       0.0240755
5.034                   0.797587      -0.0492697       0.00336361      0.00463374     -1.47772e-06    -7.73135e-05
                       0.0033636      0.00463374         0.807648      -0.0295815     -5.65782e-05    -3.35924e-06
                    -1.47766e-06    -7.73135e-05     -5.65783e-05    -3.35924e-06         0.813158       0.0238595
5.035                   0.797363      -0.0493052       0.00340532      0.00461329      -2.9822e-06    -7.73066e-05
                      0.00340532      0.00461329         0.807563      -0.0296907     -5.65718e-05    -2.17852e-06
                     -2.9821e-06    -7.73066e-05     -5.65718e-05    -2.17852e-06         0.813419       0.0236421
5.036                   0.797138      -0.0493398       0.00344698      0.00459236     -4.48769e-06    -7.72691e-05
                      0.00344697      0.00459236         0.807476         -0.0298     -5.65387e-05    -1.00084e-06
                    -4.48767e-06     -7.7269e-05     -5.65388e-05    -1.00086e-06         0.813678       0.0234233
5.037                   0.796913      -0.0493736       0.00348857      0.00457094     -5.99374e-06     -7.7201e-05
                      0.00348856      0.00457094         0.807389      -0.0299093     -5.64794e-05     1.73131e-07
                    -5.99367e-06    -7.72009e-05     -5.64794e-05     1.73131e-07         0.813934       0.0232031
5.038                   0.796687      -0.0494065       0.00353008      0.00454904     -7.49952e-06    -7.71021e-05
                      0.00353007      0.00454904           0.8073      -0.0300187     -5.63939e-05     1.34282e-06
                    -7.49945e-06    -7.71021e-05     -5.63939e-05     1.34282e-06         0.814188       0.0229816
5.039                   0.796461      -0.0494387        0.0035715      0.00452665     -9.00438e-06    -7.69726e-05
                       0.0035715      0.00452665         0.807209      -0.0301282     -5.62824e-05      2.5076e-06
                    -9.00433e-06    -7.69726e-05     -5.62825e-05      2.5076e-06         0.814438       0.0227588
5.04                    0.796235      -0.0494699       0.00361284      0.00450378     -1.05077e-05    -7.68124e-05
                      0.00361283      0.00450378         0.807118      -0.0302376     -5.61453e-05     3.66682e-06
                    -1.05076e-05    -7.68123e-05     -5.61453e-05     3.66682e-06         0.814686       0.0225347
5.041                   0.796008      -0.0495004       0.00365407      0.00448042     -1.20087e-05    -7.66214e-05
                      0.00365406      0.00448042         0.807025      -0.0303472     -5.59827e-05     4.81993e-06
                    -1.20087e-05    -7.66213e-05     -5.59827e-05     4.81993e-06         0.814932       0.0223093
5.042                    0.79578        -0.04953       0.00369518      0.00445658     -1.35069e-05    -7.63997e-05
                      0.00369518      0.00445658         0.806931      -0.0304567     -5.57948e-05     5.96632e-06
                    -1.35068e-05    -7.63996e-05     -5.57949e-05     5.96632e-06         0.815175       0.0220826
5.043                   0.795552      -0.0495588       0.00373618      0.00443226     -1.50015e-05    -7.61473e-05
                      0.00373617      0.00443226         0.806836      -0.0305662     -5.55821e-05     7.10541e-06
                    -1.50014e-05    -7.61472e-05     -5.55821e-05     7.10541e-06         0.815415       0.0218547
5.044                   0.795324      -0.0495867       0.00377705      0.00440745     -1.64918e-05    -7.58642e-05
                      0.00377704      0.00440745          0.80674      -0.0306758     -5.53446e-05     8.23665e-06
                    -1.64917e-05    -7.58642e-05     -5.53446e-05     8.23666e-06         0.815653       0.0216256
5.045                   0.795095      -0.0496139       0.00381778      0.00438216     -1.79772e-05    -7.55506e-05
                      0.00381778      0.00438216         0.806642      -0.0307853     -5.50828e-05     9.35948e-06
                    -1.79771e-05    -7.55506e-05     -5.50829e-05     9.35948e-06         0.815888       0.0213952
5.046                   0.794866      -0.0496402       0.00385837       0.0043564     -1.94569e-05    -7.52065e-05
                      0.00385836       0.0043564         0.806543      -0.0308948      -5.4797e-05     1.04733e-05
                    -1.94569e-05    -7.52065e-05      -5.4797e-05     1.04733e-05         0.816121       0.0211636
5.047                   0.794636      -0.0496656        0.0038988      0.00433015     -2.09304e-05     -7.4832e-05
                       0.0038988      0.00433015         0.806443      -0.0310043     -5.44874e-05     1.15777e-05
                    -2.09304e-05     -7.4832e-05     -5.44874e-05     1.15777e-05         0.816351       0.0209309
5.048                   0.794406      -0.0496903       0.00393908      0.00430343      -2.2397e-05    -7.44271e-05
                      0.00393907      0.00430343         0.806342      -0.0311138     -5.41544e-05      1.2672e-05
                    -2.23969e-05    -7.44271e-05     -5.41544e-05      1.2672e-05         0.816578        0.020697
5.049                   0.794175      -0.0497142       0.00397918      0.00427623     -2.38559e-05    -7.39921e-05
                      0.00397917      0.00427623         0.806239      -0.0312231     -5.37984e-05     1.37558e-05
                    -2.38559e-05    -7.39921e-05     -5.37984e-05     1.37558e-05         0.816804       0.0204619
5.05                    0.793944      -0.0497372       0.00401911      0.00424856     -2.53066e-05    -7.35271e-05
                       0.0040191      0.00424856         0.806135      -0.0313325     -5.34196e-05     1.48286e-05
                    -2.53065e-05    -7.35271e-05     -5.34196e-05     1.48286e-05         0.817026       0.0202258
5.051                   0.793713      -0.0497595       0.00405885      0.00422041     -2.67483e-05    -7.30322e-05
                      0.00405884      0.00422042          0.80603      -0.0314417     -5.30185e-05     1.58898e-05
                    -2.67483e-05    -7.30322e-05     -5.30185e-05     1.58898e-05         0.817246       0.0199885
5.052                   0.793481      -0.0497809       0.00409839      0.00419181     -2.81805e-05    -7.25076e-05
                      0.00409839      0.00419181         0.805924      -0.0315509     -5.25955e-05      1.6939e-05
                    -2.81804e-05    -7.25076e-05     -5.25955e-05     1.69391e-05         0.817464         0.01975
5.053                   0.793248      -0.0498015       0.00413774      0.00416273     -2.96023e-05    -7.19535e-05
                      0.00413773      0.00416273         0.805816        -0.03166     -5.21509e-05     1.79758e-05
                    -2.96023e-05    -7.19535e-05     -5.21509e-05     1.79759e-05         0.817679       0.0195106
5.054                   0.793015      -0.0498213       0.00417688      0.00413319     -3.10133e-05    -7.13701e-05
                      0.00417687      0.00413319         0.805707      -0.0317689      -5.1685e-05     1.89997e-05
                    -3.10132e-05    -7.13701e-05     -5.16851e-05     1.89997e-05         0.817891         0.01927
5.055                   0.792782      -0.0498403        0.0042158      0.00410319     -3.24127e-05    -7.07576e-05
                      0.00421579       0.0041032         0.805597      -0.0318778     -5.11985e-05     2.00102e-05
                    -3.24127e-05    -7.07576e-05     -5.11985e-05     2.00103e-05         0.818101       0.0190284
5.056                   0.792549      -0.0498586       0.00425449      0.00407274        -3.38e-05    -7.01163e-05
                      0.00425449      0.00407274         0.805486      -0.0319865     -5.06915e-05      2.1007e-05
                    -3.37999e-05    -7.01163e-05     -5.06915e-05      2.1007e-05         0.818309       0.0187857
5.057                   0.792314       -0.049876       0.00429296      0.00404183     -3.51744e-05    -6.94464e-05
                      0.00429295      0.00404183         0.805373      -0.0320951     -5.01646e-05     2.19896e-05
                    -3.51744e-05    -6.94464e-05     -5.01646e-05     2.19896e-05         0.818514        0.018542
5.058                    0.79208      -0.0498926       0.00433118      0.00401048     -3.65354e-05    -6.87481e-05
                      0.00433118      0.00401048         0.805259      -0.0322035     -4.96182e-05     2.29576e-05
                    -3.65353e-05    -6.87481e-05     -4.96182e-05     2.29576e-05         0.818717       0.0182973
5.059                   0.791845      -0.0499085       0.00436916      0.00397867     -3.78822e-05    -6.80218e-05
                      0.00436916      0.00397867         0.805144      -0.0323118     -4.90527e-05     2.39106e-05
                    -3.78822e-05    -6.80218e-05     -4.90527e-05     2.39106e-05         0.818917       0.0180516
5.06                     0.79161      -0.0499235       0.00440689      0.00394642     -3.92145e-05    -6.72677e-05
                      0.00440689      0.00394643         0.805028      -0.0324199     -4.84685e-05     2.48483e-05
                    -3.92144e-05    -6.72678e-05     -4.84685e-05     2.48483e-05         0.819115       0.0178049
5.061                   0.791374      -0.0499378       0.00444436      0.00391374     -4.05313e-05    -6.64863e-05
                      0.00444435      0.00391374          0.80491      -0.0325278     -4.78662e-05     2.57703e-05
                    -4.05313e-05    -6.64863e-05     -4.78662e-05     2.57704e-05          0.81931       0.0175572
5.062                   0.791138      -0.0499513       0.00448156      0.00388062     -4.18323e-05    -6.56777e-05
                      0.00448155      0.00388062         0.804791      -0.0326355     -4.72461e-05     2.66763e-05
                    -4.18323e-05    -6.56777e-05     -4.72461e-05     2.66763e-05         0.819503       0.0173085
5.063                   0.790901       -0.049964       0.00451849      0.00384707     -4.31168e-05    -6.48423e-05
                      0.00451848      0.00384707          0.80467       -0.032743     -4.66087e-05      2.7566e-05
                    -4.31168e-05    -6.48423e-05     -4.66087e-05      2.7566e-05         0.819694       0.0170589
5.064                   0.790664       -0.049976       0.00455513      0.00381309     -4.43842e-05    -6.39806e-05
                      0.00455513      0.00381309         0.804549      -0.0328503     -4.59545e-05     2.84389e-05
                    -4.43841e-05    -6.39806e-05     -4.59545e-05     2.84389e-05         0.819882       0.0168084
5.065                   0.790426      -0.0499871       0.00459149      0.00377869     -4.56339e-05    -6.30927e-05
                      0.00459149      0.00377869         0.804426      -0.0329574      -4.5284e-05     2.92948e-05
                    -4.56338e-05    -6.30928e-05      -4.5284e-05     2.92949e-05         0.820068       0.0165569
5.066                   0.790188      -0.0499975       0.00462756      0.00374387     -4.68653e-05    -6.21792e-05
                      0.00462756      0.00374388         0.804302      -0.0330642     -4.45975e-05     3.01335e-05
                    -4.68653e-05    -6.21792e-05     -4.45976e-05     3.01335e-05         0.820251       0.0163045
5.067                    0.78995      -0.0500071       0.00466333      0.00370864      -4.8078e-05    -6.12405e-05
                      0.00466333      0.00370865         0.804176      -0.0331708     -4.38957e-05     3.09547e-05
                     -4.8078e-05    -6.12405e-05     -4.38957e-05     3.09547e-05         0.820432       0.0160513
5.068                   0.789711       -0.050016        0.0046988      0.00367301     -4.92713e-05    -6.02768e-05
                      0.00469879      0.00367301          0.80405      -0.0332771      -4.3179e-05      3.1758e-05
                    -4.92713e-05    -6.02768e-05      -4.3179e-05      3.1758e-05         0.820611       0.0157971
5.069                   0.789472       -0.050024       0.00473395      0.00363696     -5.04447e-05    -5.92887e-05
                      0.00473395      0.00363697         0.803922      -0.0333831     -4.24478e-05     3.25433e-05
                    -5.04447e-05    -5.92888e-05     -4.24478e-05     3.25433e-05         0.820787       0.0155421
5.07                    0.789232      -0.0500314       0.00476879      0.00360052     -5.15977e-05    -5.82767e-05
                      0.00476878      0.00360053         0.803792      -0.0334888     -4.17027e-05     3.33102e-05
                    -5.15976e-05    -5.82767e-05     -4.17027e-05     3.33103e-05         0.820961       0.0152861
5.071                   0.788992      -0.0500379        0.0048033      0.00356369     -5.27297e-05     -5.7241e-05
                       0.0048033      0.00356369         0.803662      -0.0335942     -4.09442e-05     3.40587e-05
                    -5.27297e-05     -5.7241e-05     -4.09442e-05     3.40587e-05         0.821133       0.0150294
5.072                   0.788752      -0.0500437       0.00483749      0.00352647     -5.38403e-05    -5.61822e-05
                      0.00483749      0.00352647          0.80353      -0.0336994     -4.01727e-05     3.47885e-05
                    -5.38402e-05    -5.61823e-05     -4.01727e-05     3.47885e-05         0.821302       0.0147718
5.073                   0.788511      -0.0500487       0.00487135      0.00348886     -5.49288e-05    -5.51008e-05
                      0.00487134      0.00348887         0.803397      -0.0338041     -3.93887e-05     3.54993e-05
                    -5.49288e-05    -5.51008e-05     -3.93887e-05     3.54993e-05         0.821469       0.0145133
5.074                   0.788269       -0.050053       0.00490487      0.00345088      -5.5995e-05    -5.39973e-05
                      0.00490486      0.00345088         0.803263      -0.0339086     -3.85927e-05     3.61911e-05
                    -5.59949e-05    -5.39973e-05     -3.85927e-05     3.61911e-05         0.821634       0.0142541
5.075                   0.788027      -0.0500565       0.00493804      0.00341253     -5.70381e-05    -5.28721e-05
                      0.00493804      0.00341253         0.803127      -0.0340127     -3.77853e-05     3.68636e-05
                    -5.70381e-05    -5.28721e-05     -3.77853e-05     3.68636e-05         0.821796        0.013994
5.076                   0.787785      -0.0500593       0.00497087       0.0033738     -5.80579e-05    -5.17257e-05
                      0.00497086      0.00337381          0.80299      -0.0341164     -3.69669e-05     3.75166e-05
                    -5.80579e-05    -5.17257e-05     -3.69669e-05     3.75167e-05         0.821956       0.0137331
5.077                   0.787542      -0.0500613       0.00500334      0.00333472     -5.90539e-05    -5.05587e-05
                      0.00500334      0.00333472         0.802852      -0.0342198      -3.6138e-05     3.81502e-05
                    -5.90539e-05    -5.05587e-05      -3.6138e-05     3.81502e-05         0.822114       0.0134715
5.078                   0.787299      -0.0500625       0.00503546      0.00329528     -6.00255e-05    -4.93715e-05
                      0.00503546      0.00329528         0.802712      -0.0343228     -3.52991e-05      3.8764e-05
                    -6.00255e-05    -4.93715e-05     -3.52991e-05      3.8764e-05         0.822269        0.013209
5.079                   0.787055       -0.050063       0.00506721      0.00325549     -6.09724e-05    -4.81648e-05
                      0.00506721      0.00325549         0.802571      -0.0344254     -3.44507e-05     3.93581e-05
                    -6.09724e-05    -4.81648e-05     -3.44507e-05     3.93581e-05         0.822422       0.0129458
5.08                    0.786811      -0.0500627       0.00509861      0.00321535     -6.18942e-05     -4.6939e-05
                       0.0050986      0.00321535         0.802429      -0.0345276     -3.35933e-05     3.99323e-05
                    -6.18942e-05     -4.6939e-05     -3.35934e-05     3.99322e-05         0.822573       0.0126818
5.081                   0.786566      -0.0500617       0.00512963      0.00317487     -6.27904e-05    -4.56947e-05
                      0.00512962      0.00317488         0.802286      -0.0346293     -3.27275e-05     4.04864e-05
                    -6.27904e-05    -4.56947e-05     -3.27275e-05     4.04864e-05         0.822721       0.0124171
5.082                   0.786321      -0.0500599       0.00516027      0.00313407     -6.36607e-05    -4.44325e-05
                      0.00516027      0.00313407         0.802141      -0.0347306     -3.18536e-05     4.10206e-05
                    -6.36606e-05    -4.44325e-05     -3.18536e-05     4.10206e-05         0.822867       0.0121517
5.083                   0.786075      -0.0500574       0.00519054      0.00309293     -6.45046e-05     -4.3153e-05
                      0.00519054      0.00309293         0.801995      -0.0348315     -3.09722e-05     4.15346e-05
                    -6.45046e-05     -4.3153e-05     -3.09722e-05     4.15346e-05         0.823011       0.0118855
5.084                   0.785829      -0.0500542       0.00522043      0.00305147     -6.53219e-05    -4.18566e-05
                      0.00522043      0.00305147         0.801848      -0.0349319     -3.00837e-05     4.20284e-05
                    -6.53219e-05    -4.18566e-05     -3.00837e-05     4.20284e-05         0.823153       0.0116186
5.085                   0.785582      -0.0500501       0.00524994      0.00300969     -6.61121e-05    -4.05441e-05