! TOUCHSTONE file generated by CST MICROWAVE STUDIO
! Date and time: Wed Sep 23 10:20:16 2020
! Project name: Baby Lung Lower Right.cst
! Header version: 2018
! Port assignment regex: !\s*Touchstone port\s*([0-9]+)\s*=\s*(CST MWS port|CST DS port)\s*([0-9]+|Zmin|Zmax)\s*\(\"(.*)\"\)(\s*mode\s*([0-9]+))?.*
! Touchstone port assignment:
! Touchstone port 1 = CST MWS port 1 ("")
! Touchstone port 2 = CST MWS port 2 ("")
! Touchstone port 3 = CST MWS port 3 ("")
# GHz S RI R 50
5                       0.780805      -0.0635628       -0.0128416       -0.016061       0.00931141      -0.0106859
                      -0.0128355      -0.0160781         0.755514       -0.046262        0.0226387     -0.00590075
                      0.00931048        -0.01067        0.0226509     -0.00593587         0.763193        0.070192
5.001                   0.780294      -0.0635757       -0.0131181      -0.0159057       0.00916658      -0.0107947
                       -0.013113       -0.015923         0.755187      -0.0458176        0.0225394     -0.00623211
                      0.00916648      -0.0107789        0.0225497     -0.00626743          0.76439       0.0701996
5.002                   0.779779      -0.0635831        -0.013393      -0.0157451        0.0090209      -0.0109017
                      -0.0133888      -0.0157625         0.754866      -0.0453686        0.0224352     -0.00656143
                      0.00902162      -0.0108862        0.0224435     -0.00659684         0.765577       0.0701902
5.003                   0.779262       -0.063585       -0.0136661      -0.0155792       0.00887438      -0.0110071
                      -0.0136629      -0.0155966         0.754551      -0.0449151         0.022326     -0.00688863
                       0.0088759      -0.0109918        0.0223323     -0.00692404         0.766756       0.0701641
5.004                   0.778741      -0.0635812       -0.0139374       -0.015408       0.00872702      -0.0111107
                      -0.0139351      -0.0154254         0.754243      -0.0444573        0.0222119     -0.00721364
                      0.00872932      -0.0110957        0.0222163     -0.00724894         0.767926       0.0701215
5.005                   0.778218      -0.0635716       -0.0142067      -0.0152315       0.00857884      -0.0112126
                      -0.0142054      -0.0152488         0.753941      -0.0439953        0.0220929     -0.00753639
                      0.00858188      -0.0111979        0.0220955     -0.00757147         0.769087       0.0700628
5.006                   0.777691      -0.0635562       -0.0144739      -0.0150497       0.00842982      -0.0113128
                      -0.0144735      -0.0150669         0.753646      -0.0435293        0.0219692     -0.00785679
                      0.00843359      -0.0112985        0.0219699     -0.00789157         0.770238       0.0699883
5.007                   0.777162      -0.0635349       -0.0147389      -0.0148626       0.00827999      -0.0114113
                      -0.0147394      -0.0148797         0.753357      -0.0430593        0.0218407     -0.00817478
                      0.00828445      -0.0113974        0.0218396     -0.00820916          0.77138       0.0698984
5.008                   0.776629      -0.0635075       -0.0150016      -0.0146703       0.00812934      -0.0115081
                       -0.015003      -0.0146872         0.753075      -0.0425856        0.0217076     -0.00849029
                      0.00813446      -0.0114946        0.0217047     -0.00852418         0.772512       0.0697933
5.009                   0.776094      -0.0634739       -0.0152618      -0.0144728       0.00797788      -0.0116033
                      -0.0152641      -0.0144894           0.7528      -0.0421083        0.0215697     -0.00880324
                      0.00798364      -0.0115901        0.0215651     -0.00883656         0.773635       0.0696733
5.01                    0.775557      -0.0634342       -0.0155195        -0.01427       0.00782561      -0.0116967
                      -0.0155226      -0.0142864         0.752532      -0.0416275        0.0214274     -0.00911357
                      0.00783197      -0.0116841        0.0214211     -0.00914625         0.774747       0.0695388
5.011                   0.775017      -0.0633881       -0.0157745      -0.0140622       0.00767253      -0.0117885
                      -0.0157784      -0.0140782         0.752271      -0.0411434        0.0212805     -0.00942122
                      0.00767946      -0.0117763        0.0212726     -0.00945316         0.775849       0.0693901
5.012                   0.774474      -0.0633356       -0.0160267      -0.0138491       0.00751865      -0.0118785
                      -0.0160315      -0.0138648         0.752017      -0.0406561        0.0211291     -0.00972611
                      0.00752612      -0.0118669        0.0211197     -0.00975725         0.776942       0.0692275
5.013                    0.77393      -0.0632767        -0.016276       -0.013631       0.00736396       -0.011967
                      -0.0162815      -0.0136463         0.751771      -0.0401659        0.0209734      -0.0100282
                      0.00737194      -0.0119558        0.0209624      -0.0100585         0.778024       0.0690512
5.014                   0.773383      -0.0632111       -0.0165223      -0.0134079       0.00720847      -0.0120537
                      -0.0165285      -0.0134227         0.751531      -0.0396728        0.0208133      -0.0103274
                      0.00721692      -0.0120431        0.0208009      -0.0103567         0.779095       0.0688616
5.015                   0.772834      -0.0631389       -0.0167654      -0.0131797       0.00705219      -0.0121387
                      -0.0167724      -0.0131941         0.751299       -0.039177        0.0206489      -0.0106236
                      0.00706106      -0.0121287        0.0206352       -0.010652         0.780157        0.068659
5.016                   0.772283        -0.06306       -0.0170053      -0.0129466        0.0068951      -0.0122221
                      -0.0170129      -0.0129605         0.751075      -0.0386788        0.0204803      -0.0109169
                      0.00690438      -0.0122127        0.0204653      -0.0109442         0.781207       0.0684437
5.017                    0.77173      -0.0629743       -0.0172418      -0.0127086       0.00673721      -0.0123038
                      -0.0172501      -0.0127219         0.750858      -0.0381782        0.0203076      -0.0112071
                      0.00674686       -0.012295        0.0202913      -0.0112333         0.782247       0.0682159
5.018                   0.771175      -0.0628817       -0.0174748      -0.0124657       0.00657853      -0.0123838
                      -0.0174837      -0.0124784         0.750648      -0.0376754        0.0201308      -0.0114942
                       0.0065885      -0.0123756        0.0201133      -0.0115192         0.783277        0.067976
5.019                   0.770619      -0.0627821       -0.0177042      -0.0122179       0.00641905      -0.0124621
                      -0.0177137      -0.0122301         0.750446      -0.0371707        0.0199499      -0.0117781
                      0.00642932      -0.0124545        0.0199314      -0.0118019         0.784296       0.0677242
5.02                    0.770061      -0.0626755       -0.0179299      -0.0119655       0.00625877      -0.0125388
                      -0.0179399       -0.011977         0.750251      -0.0366642        0.0197651      -0.0120588
                       0.0062693      -0.0125318        0.0197456      -0.0120814         0.785304       0.0674608
5.021                   0.769502      -0.0625619       -0.0181517      -0.0117083        0.0060977      -0.0126137
                      -0.0181623      -0.0117192         0.750065       -0.036156        0.0195764      -0.0123363
                      0.00610846      -0.0126073         0.019556      -0.0123575         0.786301       0.0671861
5.022                   0.768941       -0.062441       -0.0183697      -0.0114465       0.00593584      -0.0126869
                      -0.0183807      -0.0114567         0.749885      -0.0356464        0.0193838      -0.0126104
                      0.00594679      -0.0126812        0.0193626      -0.0126303         0.787287       0.0669003
5.023                   0.768379       -0.062313       -0.0185836      -0.0111802       0.00577318      -0.0127584
                       -0.018595      -0.0111897         0.749714      -0.0351355        0.0191875      -0.0128811
                      0.00578429      -0.0127533        0.0191655      -0.0128997         0.788262       0.0666038
5.024                   0.767817      -0.0621776       -0.0187933      -0.0109093       0.00560973      -0.0128282
                      -0.0188052      -0.0109182          0.74955      -0.0346234        0.0189875      -0.0131484
                      0.00562096      -0.0128237        0.0189648      -0.0131657         0.789227       0.0662968
5.025                   0.767253       -0.062035       -0.0189988      -0.0106341        0.0054455      -0.0128962
                       -0.019011      -0.0106422         0.749394      -0.0341104        0.0187839      -0.0134122
                      0.00545682      -0.0128924        0.0187606      -0.0134281          0.79018       0.0659796
5.026                   0.766689      -0.0618849       -0.0191999      -0.0103544       0.00528047      -0.0129625
                      -0.0192125      -0.0103618         0.749246      -0.0335967        0.0185767      -0.0136725
                      0.00529185      -0.0129593        0.0185529      -0.0136871         0.791122       0.0656524
5.027                   0.766124      -0.0617275       -0.0193966      -0.0100706       0.00511467      -0.0130271
                      -0.0194094      -0.0100772         0.749106      -0.0330825         0.018366      -0.0139293
                      0.00512608      -0.0130245        0.0183417      -0.0139424         0.792054       0.0653155
5.028                   0.765559      -0.0615625       -0.0195887     -0.00978248       0.00494809      -0.0130899
                      -0.0196017      -0.0097884         0.748973      -0.0325678        0.0181519      -0.0141825
                      0.00495949      -0.0130879        0.0181272      -0.0141942         0.792974       0.0649691
5.029                   0.764993        -0.06139       -0.0197761      -0.0094903       0.00478073      -0.0131509
                      -0.0197893     -0.00949547         0.748848      -0.0320529        0.0179345       -0.014432
                      0.00479209      -0.0131495        0.0179095      -0.0144423         0.793883       0.0646135
5.03                    0.764427        -0.06121       -0.0199588     -0.00919409        0.0046126      -0.0132101
                      -0.0199721     -0.00919852         0.748731      -0.0315379        0.0177137      -0.0146779
                      0.00462389      -0.0132093        0.0176885      -0.0146868         0.794781        0.064249
5.031                   0.763861      -0.0610224       -0.0201366     -0.00889396        0.0044437      -0.0132675
                      -0.0201501     -0.00889764         0.748621      -0.0310231        0.0174898        -0.01492
                      0.00445488      -0.0132673        0.0174644      -0.0149275         0.795669       0.0638757
5.032                   0.763295      -0.0608271       -0.0203095     -0.00858998       0.00427402       -0.013323
                       -0.020323     -0.00859292         0.748519      -0.0305086        0.0172627      -0.0151584
                       0.0042851      -0.0133234        0.0172372      -0.0151645         0.796545       0.0634939
5.033                   0.762729      -0.0606242       -0.0204773     -0.00828226        0.0041036      -0.0133768
                      -0.0204908     -0.00828446         0.748425      -0.0299946        0.0170325       -0.015393
                      0.00411452      -0.0133777         0.017007      -0.0153977          0.79741       0.0631039
5.034                   0.762164      -0.0604136         -0.02064     -0.00797088       0.00393242      -0.0134286
                      -0.0206535     -0.00797234         0.748339      -0.0294812        0.0167993      -0.0156237
                      0.00394317      -0.0134301        0.0167739      -0.0156271         0.798264       0.0627059
5.035                   0.761599      -0.0601952       -0.0207974     -0.00765595        0.0037605      -0.0134786
                      -0.0208109     -0.00765669          0.74826      -0.0289687        0.0165632      -0.0158507
                      0.00377104      -0.0134806        0.0165379      -0.0158527         0.799107       0.0623001
5.036                   0.761035      -0.0599692       -0.0209496     -0.00733757       0.00358784      -0.0135268
                      -0.0209629     -0.00733759         0.748189      -0.0284571        0.0163242      -0.0160737
                      0.00359816      -0.0135293        0.0162991      -0.0160744         0.799939       0.0618867
5.037                   0.760472      -0.0597355       -0.0210963     -0.00701584       0.00341446       -0.013573
                      -0.0211095     -0.00701516         0.748125      -0.0279468        0.0160824      -0.0162928
                      0.00342452       -0.013576        0.0160576      -0.0162923          0.80076       0.0614659
5.038                   0.759909      -0.0594939       -0.0212376     -0.00669086       0.00324034      -0.0136172
                      -0.0212507     -0.00668948         0.748069      -0.0274377        0.0158379       -0.016508
                      0.00325014      -0.0136207        0.0158134      -0.0165062          0.80157       0.0610381
5.039                   0.759348      -0.0592447       -0.0213733     -0.00636274       0.00306552      -0.0136596
                      -0.0213862     -0.00636069          0.74802      -0.0269301        0.0155908      -0.0167192
                      0.00307503      -0.0136635        0.0155666      -0.0167162         0.802369       0.0606033
5.04                    0.758788      -0.0589876       -0.0215034     -0.00603159          0.00289      -0.0136999
                       -0.021516     -0.00602889         0.747978      -0.0264242         0.015341      -0.0169265
                       0.0028992      -0.0137043        0.0153173      -0.0169222         0.803157       0.0601618
5.041                   0.758229      -0.0587228       -0.0216278     -0.00569753       0.00271379      -0.0137383
                      -0.0216402     -0.00569419         0.747944      -0.0259201        0.0150888      -0.0171297
                      0.00272266      -0.0137431        0.0150655      -0.0171243         0.803934       0.0597137
5.042                   0.757672      -0.0584503       -0.0217465     -0.00536066        0.0025369      -0.0137747
                      -0.0217585      -0.0053567         0.747917       -0.025418         0.014834      -0.0173289
                      0.00254543      -0.0137799        0.0148114      -0.0173224         0.804701       0.0592594
5.043                   0.757117        -0.05817       -0.0218592      -0.0050211       0.00235935      -0.0138091
                       -0.021871     -0.00501655         0.747897       -0.024918         0.014577       -0.017524
                      0.00236752      -0.0138146        0.0145549      -0.0175164         0.805456        0.058799
5.044                   0.756564      -0.0578819       -0.0219661     -0.00467896       0.00218115      -0.0138414
                      -0.0219775     -0.00467384         0.747885      -0.0244203        0.0143176       -0.017715
                      0.00218895      -0.0138473        0.0142962      -0.0177064         0.806201       0.0583326
5.045                   0.756012      -0.0575862       -0.0220671     -0.00433438       0.00200232      -0.0138716
                       -0.022078     -0.00432871         0.747879       -0.023925         0.014056       -0.017902
                      0.00200973      -0.0138778        0.0140352      -0.0178924         0.806935       0.0578605
5.046                   0.755463      -0.0572827       -0.0221619     -0.00398746       0.00182286      -0.0138997
                      -0.0221725     -0.00398126          0.74788      -0.0234323        0.0137922      -0.0180848
                      0.00182987      -0.0139063        0.0137722      -0.0180743         0.807659       0.0573829
5.047                   0.754916      -0.0569716       -0.0222507     -0.00363832        0.0016428      -0.0139258
                      -0.0222609     -0.00363163         0.747888      -0.0229423        0.0135263      -0.0182636
                      0.00164941      -0.0139326        0.0135071      -0.0182521         0.808372       0.0568999
5.048                   0.754372      -0.0566528       -0.0223334      -0.0032871       0.00146216      -0.0139497
                      -0.0223431     -0.00327994         0.747903      -0.0224551        0.0132584      -0.0184381
                      0.00146835      -0.0139567          0.01324      -0.0184259         0.809074       0.0564118
5.049                    0.75383      -0.0563264       -0.0224099      -0.0029339       0.00128095      -0.0139714
                      -0.0224191     -0.00292631         0.747924      -0.0219709        0.0129886      -0.0186086
                      0.00128671      -0.0139787         0.012971      -0.0185955         0.809766       0.0559187
5.05                    0.753291      -0.0559924       -0.0224801     -0.00257887        0.0010992       -0.013991
                      -0.0224889     -0.00257087         0.747952      -0.0214899        0.0127169      -0.0187748
                      0.00110453      -0.0139985        0.0127001       -0.018761         0.810447       0.0554207
5.051                   0.752755      -0.0556509       -0.0225441     -0.00222212      0.000916914      -0.0140084
                      -0.0225523     -0.00221373         0.747987       -0.021012        0.0124433      -0.0189369
                     0.000921809      -0.0140161        0.0124274      -0.0189224         0.811117       0.0549181
5.052                   0.752221      -0.0553018       -0.0226017     -0.00186379      0.000734124      -0.0140236
                      -0.0226094     -0.00185506         0.748027      -0.0205376         0.012168      -0.0190948
                     0.000738578      -0.0140314         0.012153      -0.0190796         0.811778        0.054411
5.053                   0.751692      -0.0549453        -0.022653       -0.001504      0.000550851      -0.0140365
                      -0.0226602     -0.00149495         0.748074      -0.0200667         0.011891      -0.0192485
                     0.000554863      -0.0140445         0.011877      -0.0192328         0.812428       0.0538995
5.054                   0.751165      -0.0545814       -0.0226979     -0.00114288      0.000367111      -0.0140471
                      -0.0227045     -0.00113355         0.748128      -0.0195994        0.0116124       -0.019398
                     0.000370689      -0.0140552        0.0115993      -0.0193817         0.813068       0.0533839
5.055                   0.750642      -0.0542101       -0.0227363    -0.000780575      0.000182945      -0.0140555
                      -0.0227424    -0.000770977         0.748187      -0.0191358        0.0113322      -0.0195433
                     0.000186069      -0.0140637        0.0113201      -0.0195265         0.813697       0.0528643
5.056                   0.750122      -0.0538316       -0.0227683    -0.000417193     -1.64241e-06      -0.0140616
                      -0.0227738    -0.000407384         0.748252      -0.0186761        0.0110506      -0.0196844
                     1.04792e-06      -0.0140698        0.0110395      -0.0196672         0.814316       0.0523408
5.057                   0.749607      -0.0534458       -0.0227938    -5.28827e-05     -0.000186609      -0.0140653
                      -0.0227987      -4.288e-05         0.748323      -0.0182203        0.0107675      -0.0198212
                    -0.000184363      -0.0140736        0.0107574      -0.0198037         0.814926       0.0518137
5.058                   0.749095      -0.0530528       -0.0228128     0.000312227     -0.000371938      -0.0140667
                      -0.0228171     0.000322389         0.748399      -0.0177685        0.0104831      -0.0199539
                    -0.000370126       -0.014075         0.010474       -0.019936         0.815525       0.0512829
5.059                   0.748587      -0.0526527       -0.0228252     0.000678005      -0.00055758      -0.0140657
                       -0.022829     0.000688293         0.748481      -0.0173209        0.0101974      -0.0200823
                    -0.000556216      -0.0140741        0.0101893      -0.0200642         0.816114       0.0507488
5.06                    0.748084      -0.0522455       -0.0228311      0.00104431     -0.000743547      -0.0140624
                      -0.0228343       0.0010547         0.748569      -0.0168776       0.00991049      -0.0202065
                    -0.000742603      -0.0140707       0.00990337      -0.0201881         0.816693       0.0502113
5.061                   0.747585      -0.0518314       -0.0228305      0.00141103     -0.000929761      -0.0140566
                      -0.0228331      0.00142147         0.748661      -0.0164385       0.00962243      -0.0203264
                    -0.000929259      -0.0140649       0.00961629      -0.0203079         0.817263       0.0496708
5.062                    0.74709      -0.0514104       -0.0228232        0.001778      -0.00111623      -0.0140484
                      -0.0228253      0.00178848         0.748759      -0.0160039       0.00933326      -0.0204422
                     -0.00111615      -0.0140566       0.00932811      -0.0204236         0.817823       0.0491272
5.063                     0.7466      -0.0509826       -0.0228094      0.00214511      -0.00130291      -0.0140378
                      -0.0228109      0.00215559         0.748862      -0.0155738       0.00904306      -0.0205537
                     -0.00130323      -0.0140459       0.00903891      -0.0205351         0.818373       0.0485808
5.064                   0.746114       -0.050548        -0.022789      0.00251221      -0.00148977      -0.0140247
                      -0.0227899      0.00252266          0.74897      -0.0151483       0.00875188       -0.020661
                     -0.00149049      -0.0140327       0.00874873      -0.0206424         0.818913       0.0480316
5.065                   0.745633      -0.0501068        -0.022762      0.00287918      -0.00167676      -0.0140091
                      -0.0227624      0.00288958         0.749082      -0.0147274       0.00845981      -0.0207641
                     -0.00167788       -0.014017       0.00845762      -0.0207455         0.819444       0.0474799
5.066                   0.745158      -0.0496591       -0.0227284      0.00324588      -0.00186387      -0.0139911
                      -0.0227282      0.00325618           0.7492      -0.0143113       0.00816688       -0.020863
                     -0.00186537      -0.0139988       0.00816567      -0.0208445         0.819965       0.0469256
5.067                   0.744687      -0.0492048       -0.0226883      0.00361216      -0.00205105      -0.0139705
                      -0.0226875      0.00362236         0.749321         -0.0139       0.00787317      -0.0209577
                     -0.00205292      -0.0139781        0.0078729      -0.0209393         0.820477        0.046369
5.068                   0.744221      -0.0487442       -0.0226416      0.00397792      -0.00223826      -0.0139474
                      -0.0226403      0.00398796         0.749448      -0.0134935       0.00757875      -0.0210482
                     -0.00224049      -0.0139548       0.00757941        -0.02103         0.820979       0.0458101
5.069                   0.743761      -0.0482773       -0.0225883      0.00434299      -0.00242548      -0.0139217
                      -0.0225865      0.00435287         0.749578      -0.0130919       0.00728366      -0.0211345
                     -0.00242806       -0.013929       0.00728522      -0.0211165         0.821472       0.0452491
5.07                    0.743306      -0.0478043       -0.0225284      0.00470726      -0.00261266      -0.0138935
                      -0.0225262      0.00471696         0.749712      -0.0126953       0.00698796      -0.0212166
                     -0.00261557      -0.0139005       0.00699042      -0.0211989         0.821956       0.0446861
5.071                   0.742857      -0.0473251       -0.0224621      0.00507059      -0.00279977      -0.0138627
                      -0.0224593      0.00508006         0.749851      -0.0123038       0.00669172      -0.0212946
                       -0.002803      -0.0138695       0.00669503      -0.0212772         0.822431       0.0441212
5.072                   0.742413        -0.04684       -0.0223892      0.00543285      -0.00298676      -0.0138293
                       -0.022386      0.00544208         0.749993      -0.0119173       0.00639499      -0.0213683
                     -0.00299031      -0.0138359       0.00639915      -0.0213513         0.822896       0.0435545
5.073                   0.741975       -0.046349       -0.0223099      0.00579391       -0.0031736      -0.0137933
                      -0.0223062      0.00580288         0.750139      -0.0115359       0.00609785       -0.021438
                     -0.00317743      -0.0137997        0.0061028      -0.0214213         0.823353       0.0429861
5.074                   0.741543      -0.0458522       -0.0222241      0.00615364      -0.00336023      -0.0137548
                      -0.0222199      0.00616232         0.750289      -0.0111597       0.00580031      -0.0215035
                     -0.00336435      -0.0137609       0.00580606      -0.0214873         0.823801       0.0424161
5.075                   0.741117      -0.0453497       -0.0221318      0.00651191      -0.00354664      -0.0137135
                      -0.0221273      0.00652029         0.750442      -0.0107886       0.00550247      -0.0215648
                     -0.00355102      -0.0137194       0.00550897      -0.0215491         0.824239       0.0418446
5.076                   0.740697      -0.0448418       -0.0220332      0.00686859      -0.00373277      -0.0136697
                      -0.0220282      0.00687665         0.750598      -0.0104227       0.00520435      -0.0216221
                      -0.0037374      -0.0136753       0.00521158      -0.0216068         0.824669       0.0412718
5.077                   0.740283      -0.0443283       -0.0219282      0.00722354      -0.00391859      -0.0136232
                      -0.0219229      0.00723126         0.750757      -0.0100621       0.00490603      -0.0216752
                     -0.00392344      -0.0136285       0.00491396      -0.0216605          0.82509       0.0406976
5.078                   0.739875      -0.0438096       -0.0218169      0.00757666      -0.00410403      -0.0135741
                      -0.0218112      0.00758402          0.75092     -0.00970681       0.00460757      -0.0217243
                     -0.00410911      -0.0135791       0.00461614      -0.0217101         0.825503       0.0401223
5.079                   0.739473      -0.0432856       -0.0216992      0.00792781      -0.00428907      -0.0135223
                      -0.0216933       0.0079348         0.751085     -0.00935677       0.00430901      -0.0217692
                     -0.00429435       -0.013527        0.0043182      -0.0217556         0.825906       0.0395459
5.08                    0.739078      -0.0427565       -0.0215754      0.00827685      -0.00447367      -0.0134679
                      -0.0215691      0.00828346         0.751253     -0.00901202        0.0040104      -0.0218101
                     -0.00447912      -0.0134723       0.00402019      -0.0217971         0.826302       0.0389684
5.081                   0.738689      -0.0422225       -0.0214454      0.00862369      -0.00465776      -0.0134108
                      -0.0214388       0.0086299         0.751424     -0.00867257        0.0037118       -0.021847
                     -0.00466338      -0.0134148       0.00372214      -0.0218346         0.826689         0.03839
5.082                   0.738307      -0.0416836       -0.0213092      0.00896818      -0.00484131       -0.013351
                      -0.0213023      0.00897399         0.751597     -0.00833847       0.00341326      -0.0218798
                     -0.00484708      -0.0133547       0.00342411      -0.0218681         0.827067       0.0378108
5.083                   0.737931      -0.0411399       -0.0211669      0.00931021      -0.00502428      -0.0132885
                      -0.0211598       0.0093156         0.751773     -0.00800971       0.00311483      -0.0219087
                     -0.00503018       -0.013292       0.00312616      -0.0218976         0.827437       0.0372309
5.084                   0.737562      -0.0405917       -0.0210186      0.00964966      -0.00520662      -0.0132234
                      -0.0210113      0.00965464         0.751951     -0.00768626       0.00281657      -0.0219335
                     -0.00521263      -0.0132265       0.00282833      -0.0219231         0.827799       0.0366503
5.085                   0.737199      -0.0400389       -0.0208643      0.00998641      -0.00538828      -0.0131556