! TOUCHSTONE file generated by CST MICROWAVE STUDIO
! Date and time: Sat Sep 26 14:47:19 2020
! Project name: Child Lung.cst
! Header version: 2018
! Port assignment regex: !\s*Touchstone port\s*([0-9]+)\s*=\s*(CST MWS port|CST DS port)\s*([0-9]+|Zmin|Zmax)\s*\(\"(.*)\"\)(\s*mode\s*([0-9]+))?.*
! Touchstone port assignment:
! Touchstone port 1 = CST MWS port 1 ("")
! Touchstone port 2 = CST MWS port 2 ("")
! Touchstone port 3 = CST MWS port 3 ("")
# GHz S RI R 50
5                       0.743596      -0.0189284       0.00911726       0.0195368      0.000117388     -0.00387843
                      0.00908742       0.0195576          0.74182      -0.0270814      -0.00135579     -0.00293424
                     9.25629e-05     -0.00386517      -0.00135054     -0.00293839         0.717176       -0.122906
5.001                   0.743648      -0.0184298       0.00936282       0.0193754      5.77246e-05       -0.003893
                      0.00933456       0.0193978         0.741765      -0.0265535      -0.00139576     -0.00291056
                     3.39191e-05     -0.00387837      -0.00139079     -0.00291499         0.715949       -0.122391
5.002                   0.743705       -0.017933       0.00960489       0.0192109      -2.6465e-06     -0.00390664
                      0.00957828       0.0192347         0.741716      -0.0260259      -0.00143519     -0.00288643
                    -2.53563e-05      -0.0038907      -0.00143052     -0.00289114         0.714721        -0.12186
5.003                   0.743767      -0.0174382       0.00984341       0.0190433     -6.37087e-05     -0.00391931
                      0.00981853       0.0190685         0.741673      -0.0254986      -0.00147407     -0.00286187
                    -8.52554e-05     -0.00390215      -0.00146972     -0.00286684         0.713493       -0.121314
5.004                   0.743834      -0.0169453        0.0100784       0.0188727     -0.000125451     -0.00393099
                       0.0100553        0.018899         0.741635      -0.0249717      -0.00151242     -0.00283691
                    -0.000145772     -0.00391268      -0.00150839     -0.00284211         0.712265       -0.120753
5.005                   0.743905      -0.0164544        0.0103097       0.0186992     -0.000187857     -0.00394163
                       0.0102884       0.0187266         0.741602      -0.0244454      -0.00155022     -0.00281156
                    -0.000206891     -0.00392227      -0.00154654     -0.00281697         0.711038       -0.120176
5.006                   0.743981      -0.0159656        0.0105374       0.0185228     -0.000250907     -0.00395122
                        0.010518       0.0185512         0.741575      -0.0239196      -0.00158749     -0.00278583
                    -0.000268603     -0.00393088      -0.00158416     -0.00279144         0.709811       -0.119583
5.007                   0.744062       -0.015479        0.0107615       0.0183437     -0.000314584     -0.00395971
                        0.010744        0.018373         0.741554      -0.0233945      -0.00162422     -0.00275975
                    -0.000330894     -0.00393849      -0.00162125     -0.00276552         0.708585       -0.118974
5.008                   0.744147      -0.0149945        0.0109818        0.018162     -0.000378865     -0.00396708
                       0.0109663        0.018192         0.741539      -0.0228702      -0.00166042     -0.00273333
                    -0.000393752     -0.00394507      -0.00165783     -0.00273925          0.70736       -0.118349
5.009                   0.744237      -0.0145124        0.0111984       0.0179777     -0.000443732      -0.0039733
                       0.0111848       0.0180083         0.741528      -0.0223467       -0.0016961     -0.00270659
                    -0.000457155     -0.00395058      -0.00169388     -0.00271262         0.706136       -0.117708
5.01                    0.744332      -0.0140325        0.0114113        0.017791     -0.000509158     -0.00397833
                       0.0113997       0.0178221         0.741524      -0.0218242      -0.00173126     -0.00267953
                    -0.000521089     -0.00395501      -0.00172943     -0.00268566         0.704914        -0.11705
5.011                   0.744431       -0.013555        0.0116204       0.0176019     -0.000575119     -0.00398215
                       0.0116108       0.0176333         0.741525      -0.0213026      -0.00176591     -0.00265218
                    -0.000585534     -0.00395832      -0.00176446     -0.00265838         0.703693       -0.116377
5.012                   0.744535        -0.01308        0.0118258       0.0174106     -0.000641588     -0.00398473
                       0.0118182       0.0174422         0.741531      -0.0207822      -0.00180005     -0.00262454
                    -0.000650472     -0.00396049      -0.00179899     -0.00263079         0.702475       -0.115687
5.013                   0.744643      -0.0126074        0.0120274       0.0172171     -0.000708538     -0.00398604
                       0.0120217       0.0172488         0.741543       -0.020263      -0.00183369     -0.00259664
                    -0.000715877     -0.00396148      -0.00183302     -0.00260291         0.701258        -0.11498
5.014                   0.744755      -0.0121374        0.0122252       0.0170215     -0.000775938     -0.00398605
                       0.0122215       0.0170532         0.741561      -0.0197451      -0.00186684     -0.00256848
                    -0.000781729     -0.00396127      -0.00186656     -0.00257475         0.700045       -0.114257
5.015                   0.744873        -0.01167        0.0124192       0.0168239     -0.000843758     -0.00398474
                       0.0124174       0.0168555         0.741584      -0.0192285      -0.00189951     -0.00254007
                    -0.000848001     -0.00395984      -0.00189961     -0.00254632         0.698834       -0.113517
5.016                   0.744994      -0.0112052        0.0126094       0.0166244     -0.000911967     -0.00398209
                       0.0126095       0.0166558         0.741612      -0.0187134       -0.0019317     -0.00251143
                    -0.000914666     -0.00395715      -0.00193218     -0.00251763         0.697626        -0.11276
5.017                    0.74512      -0.0107431        0.0127958       0.0164231     -0.000980532     -0.00397806
                       0.0127978       0.0164541         0.741646      -0.0181999      -0.00196342     -0.00248256
                    -0.000981698     -0.00395318      -0.00196428     -0.00248869         0.696422       -0.111986
5.018                    0.74525      -0.0102838        0.0129784       0.0162201      -0.00104942     -0.00397263
                       0.0129822       0.0162506         0.741686      -0.0176879      -0.00199469     -0.00245349
                     -0.00104907     -0.00394791      -0.00199592     -0.00245952         0.695221       -0.111195
5.019                   0.745384     -0.00982726        0.0131572       0.0160154      -0.00111858     -0.00396579
                       0.0131628       0.0160453         0.741731      -0.0171778      -0.00202551      -0.0024242
                     -0.00111674     -0.00394131       -0.0020271     -0.00243012         0.694024       -0.110387
5.02                    0.745522     -0.00937362        0.0133321       0.0158091        -0.001188     -0.00395751
                       0.0133395       0.0158384         0.741781      -0.0166694      -0.00205589     -0.00239472
                      -0.0011847     -0.00393336      -0.00205784     -0.00240049         0.692832       -0.109563
5.021                   0.745665     -0.00892285        0.0135034       0.0156014      -0.00125762     -0.00394776
                       0.0135124       0.0156299         0.741837      -0.0161629      -0.00208585     -0.00236504
                     -0.00125289     -0.00392404      -0.00208814     -0.00237066         0.691644       -0.108721
5.022                   0.745812     -0.00847504        0.0136708       0.0153922      -0.00132742     -0.00393654
                       0.0136814       0.0154199         0.741897      -0.0156584      -0.00211539     -0.00233518
                     -0.00132129     -0.00391332        -0.002118     -0.00234062         0.690461       -0.107861
5.023                   0.745963     -0.00803027        0.0138345       0.0151818      -0.00139734     -0.00392383
                       0.0138466       0.0152085         0.741964       -0.015156      -0.00214452     -0.00230514
                     -0.00138986     -0.00390119      -0.00214745     -0.00231038         0.689284       -0.106985
5.024                   0.746118     -0.00758854        0.0139944       0.0149701      -0.00146735     -0.00390961
                        0.014008       0.0149958         0.742035      -0.0146557      -0.00217325     -0.00227492
                     -0.00145857     -0.00388763      -0.00217649     -0.00227995         0.688111       -0.106091
5.025                   0.746277     -0.00714988        0.0141506       0.0147572      -0.00153741     -0.00389386
                       0.0141655       0.0147818         0.742112      -0.0141576      -0.00220161     -0.00224453
                     -0.00152738     -0.00387261      -0.00220513     -0.00224932         0.686945        -0.10518
5.026                   0.746439     -0.00671437         0.014303       0.0145432      -0.00160747     -0.00387657
                       0.0143193       0.0145667         0.742194      -0.0136619      -0.00222958     -0.00221398
                     -0.00159624     -0.00385613      -0.00223338     -0.00221851         0.685784       -0.104252
5.027                   0.746606     -0.00628206        0.0144518       0.0143282      -0.00167749     -0.00385774
                       0.0144693       0.0143505         0.742281      -0.0131685      -0.00225719     -0.00218325
                     -0.00166513     -0.00383816      -0.00226124     -0.00218752         0.684631       -0.103306
5.028                   0.746777     -0.00585297        0.0145968       0.0141123      -0.00174742     -0.00383735
                       0.0146155       0.0141332         0.742373      -0.0126777      -0.00228445     -0.00215236
                     -0.00173399      -0.0038187      -0.00228873     -0.00215635         0.683483       -0.102343
5.029                   0.746951     -0.00542717        0.0147382       0.0138955      -0.00181723      -0.0038154
                       0.0147579       0.0139151          0.74247      -0.0121894      -0.00231136      -0.0021213
                     -0.00180278     -0.00379773      -0.00231586       -0.002125         0.682343       -0.101362
5.03                    0.747129     -0.00500469         0.014876       0.0136779      -0.00188685     -0.00379187
                       0.0148966       0.0136961         0.742572      -0.0117037      -0.00233794     -0.00209008
                     -0.00187147     -0.00377525      -0.00234263     -0.00209347         0.681211       -0.100364
5.031                   0.747311     -0.00458555        0.0150101       0.0134595      -0.00195626     -0.00376677
                       0.0150316       0.0134763         0.742679      -0.0112207      -0.00236419     -0.00205869
                     -0.00194001     -0.00375123      -0.00236906     -0.00206177         0.680086      -0.0993489
5.032                   0.747497      -0.0041698        0.0151407       0.0132405      -0.00202539     -0.00374009
                       0.0151629       0.0132558         0.742791      -0.0107405      -0.00239012     -0.00202713
                     -0.00200835     -0.00372568      -0.00239515     -0.00202988         0.678969      -0.0983162
5.033                   0.747686      -0.0037575        0.0152677       0.0130209      -0.00209421     -0.00371184
                       0.0152906       0.0130347         0.742908      -0.0102632      -0.00241575      -0.0019954
                     -0.00207645     -0.00369859       -0.0024209     -0.00199782         0.677861      -0.0972662
5.034                   0.747879     -0.00334868        0.0153911       0.0128007      -0.00216267       -0.003682
                       0.0154146        0.012813         0.743029     -0.00978881      -0.00244107     -0.00196349
                     -0.00214427     -0.00366995      -0.00244634     -0.00196557         0.676761      -0.0961988
5.035                   0.748075     -0.00294337         0.015511         0.01258      -0.00223071     -0.00365059
                        0.015535       0.0125908         0.743155     -0.00931742      -0.00246611      -0.0019314
                     -0.00221175     -0.00363977      -0.00247147     -0.00193314         0.675671      -0.0951142
5.036                   0.748275     -0.00254158        0.0156275       0.0123589       -0.0022983      -0.0036176
                       0.0156518       0.0123682         0.743286     -0.00884909      -0.00249086     -0.00189912
                     -0.00227886     -0.00360804      -0.00249629     -0.00190052          0.67459      -0.0940124
5.037                   0.748478     -0.00214341        0.0157405       0.0121375      -0.00236538     -0.00358306
                       0.0157651       0.0121451         0.743422     -0.00838391      -0.00251533     -0.00186665
                     -0.00234554     -0.00357476      -0.00252081      -0.0018677         0.673519      -0.0928934
5.038                   0.748684     -0.00174884        0.0158501       0.0119157      -0.00243191     -0.00354695
                       0.0158749       0.0119218         0.743562     -0.00792191      -0.00253953     -0.00183399
                     -0.00241175     -0.00353994      -0.00254503     -0.00183469         0.672458      -0.0917572
5.039                   0.748894     -0.00135791        0.0159563       0.0116936      -0.00249784      -0.0035093
                       0.0159812       0.0116982         0.743707      -0.0074632      -0.00256347     -0.00180112
                     -0.00247744     -0.00350357      -0.00256897     -0.00180147         0.671408       -0.090604
5.04                    0.749107    -0.000970688        0.0160591       0.0114714      -0.00256313     -0.00347011
                        0.016084       0.0114744         0.743856      -0.0070078      -0.00258714     -0.00176804
                     -0.00254256     -0.00346568      -0.00259262     -0.00176805         0.670368      -0.0894338
5.041                   0.749323    -0.000587165        0.0161586       0.0112489      -0.00262772     -0.00342941
                       0.0161834       0.0112505         0.744009     -0.00655578      -0.00261056     -0.00173474
                     -0.00260707     -0.00342626        -0.002616      -0.0017344          0.66934      -0.0882467
5.042                   0.749542    -0.000207401        0.0162548       0.0110264      -0.00269157     -0.00338719
                       0.0162794       0.0110264         0.744167     -0.00610725      -0.00263372     -0.00170121
                     -0.00267092     -0.00338533       -0.0026391     -0.00170054         0.668323      -0.0870429
5.043                   0.749765     0.000168583        0.0163478       0.0108038      -0.00275463     -0.00334349
                       0.0163721       0.0108024         0.744328      -0.0056622      -0.00265664     -0.00166744
                     -0.00273407      -0.0033429      -0.00266193     -0.00166645         0.667319      -0.0858223
5.044                    0.74999     0.000540766        0.0164375       0.0105812      -0.00281687     -0.00329831
                       0.0164615       0.0105783         0.744494     -0.00522069       -0.0026793     -0.00163343
                     -0.00279646     -0.00329898      -0.00268449     -0.00163211         0.666326      -0.0845852
5.045                   0.750219      0.00090911         0.016524       0.0103586      -0.00287822     -0.00325169
                       0.0165476       0.0103543         0.744665     -0.00478281      -0.00270171     -0.00159916
                     -0.00285805     -0.00325359      -0.00270678     -0.00159753         0.665347      -0.0833317
5.046                    0.75045       0.0012736        0.0166074        0.010136      -0.00293866     -0.00320364
                       0.0166304       0.0101304         0.744839     -0.00434859      -0.00272388     -0.00156463
                     -0.00291879     -0.00320675       -0.0027288      -0.0015627          0.66438      -0.0820618
5.047                   0.750685      0.00163417        0.0166876      0.00991359      -0.00299814     -0.00315418
                       0.0167101       0.0099067         0.745017     -0.00391809       -0.0027458     -0.00152983
                     -0.00297864     -0.00315847      -0.00275056      -0.0015276         0.663426      -0.0807757
5.048                   0.750922      0.00199085        0.0167647       0.0096913      -0.00305661     -0.00310334
                       0.0167865      0.00968316         0.745198     -0.00349135      -0.00276746     -0.00149474
                     -0.00303756     -0.00310878      -0.00277205     -0.00149224         0.662487      -0.0794737
5.049                   0.751162       0.0023436        0.0168388       0.0094692      -0.00311404     -0.00305116
                       0.0168599      0.00945985         0.745384     -0.00306839      -0.00278888     -0.00145935
                      -0.0030955     -0.00305771      -0.00279328     -0.00145659         0.661561      -0.0781557
5.05                    0.751404      0.00269236        0.0169098      0.00924733      -0.00317038     -0.00299765
                       0.0169302      0.00923683         0.745573      -0.0026493      -0.00281004     -0.00142366
                     -0.00315241     -0.00300526      -0.00281423     -0.00142065          0.66065       -0.076822
5.051                   0.751649      0.00303714        0.0169779      0.00902571       -0.0032256     -0.00294285
                       0.0169974      0.00901411         0.745766     -0.00223407      -0.00283094     -0.00138766
                     -0.00320826     -0.00295148       -0.0028349      -0.0013844         0.659754      -0.0754728
5.052                   0.751897      0.00337791         0.017043      0.00880437      -0.00327965     -0.00288678
                       0.0170616      0.00879176         0.745963     -0.00182278      -0.00285157     -0.00135133
                       -0.003263      -0.0028964       -0.0028553     -0.00134785         0.658873      -0.0741082
5.053                   0.752148      0.00371466        0.0171052      0.00858337       -0.0033325     -0.00282949
                       0.0171228      0.00856979         0.746163     -0.00141546      -0.00287193     -0.00131467
                     -0.00331659     -0.00284003      -0.00287542     -0.00131098         0.658007      -0.0727285
5.054                   0.752401      0.00404733        0.0171644      0.00836272      -0.00338412     -0.00277101
                       0.0171811      0.00834824         0.746367     -0.00101215      -0.00289202     -0.00127766
                       -0.003369     -0.00278241      -0.00289524     -0.00127379         0.657157      -0.0713339
5.055                   0.752656      0.00437593        0.0172208      0.00814245      -0.00343446     -0.00271136
                       0.0172364      0.00812715         0.746573    -0.000612852      -0.00291181     -0.00124029
                     -0.00342018     -0.00272358      -0.00291477     -0.00123626         0.656323      -0.0699245
5.056                   0.752914      0.00470044        0.0172744       0.0079226       -0.0034835      -0.0026506
                        0.017289      0.00790654         0.746783    -0.000217621      -0.00293132     -0.00120257
                      -0.0034701     -0.00266357        -0.002934     -0.00119838         0.655506      -0.0685007
5.057                   0.753174      0.00502081        0.0173252      0.00770319      -0.00353121     -0.00258875
                       0.0173386      0.00768645         0.746997     0.000173503      -0.00295052     -0.00116446
                     -0.00351873     -0.00260241      -0.00295291     -0.00116014         0.654706      -0.0670626
5.058                   0.753437      0.00533708        0.0173732      0.00748426      -0.00357755     -0.00252585
                       0.0173855      0.00746691         0.747213     0.000560523       -0.0029694     -0.00112598
                     -0.00356602     -0.00254015      -0.00297151     -0.00112155         0.653923      -0.0656104
5.059                   0.753701      0.00564919        0.0174185      0.00726582      -0.00362249     -0.00246195
                       0.0174297      0.00724793         0.747432     0.000943407      -0.00298796     -0.00108711
                     -0.00361194     -0.00247681      -0.00298977     -0.00108258         0.653157      -0.0641444
5.06                    0.753968      0.00595712        0.0174611       0.0070479      -0.00366602     -0.00239709
                       0.0174711      0.00702955         0.747655      0.00132212      -0.00300618     -0.00104784
                     -0.00365647     -0.00241245       -0.0030077     -0.00104324         0.652409       -0.062665
5.061                   0.754237      0.00626086        0.0175011      0.00683054       -0.0037081     -0.00233131
                       0.0175098       0.0068118          0.74788      0.00169663      -0.00302405     -0.00100817
                     -0.00369958      -0.0023471      -0.00302527     -0.00100351         0.651679      -0.0611723
5.062                   0.754508       0.0065604        0.0175384      0.00661374       -0.0037487     -0.00226464
                       0.0175459      0.00659469         0.748108      0.00206694      -0.00304156    -0.000968078
                     -0.00374123     -0.00228081      -0.00304248    -0.000963383         0.650968      -0.0596667
5.063                   0.754781      0.00685574         0.017573      0.00639754      -0.00378782     -0.00219714
                       0.0175794      0.00637824         0.748339      0.00243302      -0.00305869    -0.000927574
                      -0.0037814     -0.00221361      -0.00305931    -0.000922861         0.650276      -0.0581484
5.064                   0.755056      0.00714683        0.0176051      0.00618195      -0.00382541     -0.00212885
                       0.0176103      0.00616249         0.748572      0.00279488      -0.00307543    -0.000886646
                     -0.00382006     -0.00214555      -0.00307575    -0.000881936         0.649602      -0.0566177
5.065                   0.755333      0.00743369        0.0176347        0.005967      -0.00386148     -0.00205981
                       0.0176386      0.00594745         0.748808      0.00315246      -0.00309176     -0.00084529
                      -0.0038572     -0.00207668      -0.00309178    -0.000840602         0.648948       -0.055075
5.066                   0.755612      0.00771628        0.0176617      0.00575271      -0.00389599     -0.00199007
                       0.0176645      0.00573314         0.749047      0.00350579      -0.00310767    -0.000803503
                     -0.00389278     -0.00200703      -0.00310739    -0.000798854         0.648314      -0.0535205
5.067                   0.755892       0.0079946        0.0176863       0.0055391      -0.00392894     -0.00191968
                       0.0176878      0.00551957         0.749287      0.00385484      -0.00312313     -0.00076128
                     -0.00392679     -0.00193667      -0.00312257    -0.000756689           0.6477      -0.0519545
5.068                   0.756175      0.00826863        0.0177084      0.00532618      -0.00396031     -0.00184867
                       0.0177088      0.00530678         0.749531      0.00419959      -0.00313814     -0.00071862
                     -0.00395922     -0.00186563      -0.00313729    -0.000714104         0.647106      -0.0503776
5.069                   0.756459      0.00853839         0.017728      0.00511398      -0.00399009      -0.0017771
                       0.0177273      0.00509477         0.749776      0.00454004      -0.00315267     -0.00067552
                     -0.00399004     -0.00179396      -0.00315155    -0.000671097         0.646532      -0.0487899
5.07                    0.756744      0.00880381        0.0177453      0.00490252      -0.00401826     -0.00170501
                       0.0177434      0.00488355         0.750024       0.0048762      -0.00316671    -0.000631981
                     -0.00401924     -0.00172172      -0.00316532    -0.000627666          0.64598      -0.0471918
5.071                   0.757032      0.00906495        0.0177602      0.00469181      -0.00404482     -0.00163245
                       0.0177572      0.00467316         0.750274      0.00520807      -0.00318023    -0.000588002
                     -0.00404681     -0.00164894      -0.00317858    -0.000583813         0.645448      -0.0455836
5.072                    0.75732      0.00932174        0.0177727      0.00448186      -0.00406976     -0.00155947
                       0.0177686      0.00446359         0.750526      0.00553562      -0.00319322    -0.000543584
                     -0.00407274     -0.00157567      -0.00319133    -0.000539535         0.644937      -0.0439657
5.073                   0.757611      0.00957421        0.0177829      0.00427271      -0.00409308     -0.00148611
                       0.0177778      0.00425487          0.75078      0.00585886      -0.00320566     -0.00049873
                     -0.00409701     -0.00150197      -0.00320353    -0.000494836         0.644448      -0.0423386
5.074                   0.757902      0.00982232        0.0177908      0.00406436      -0.00411477     -0.00141242
                       0.0177847      0.00404701         0.751036      0.00617777      -0.00321753    -0.000453443
                     -0.00411963     -0.00142789      -0.00321518    -0.000449716         0.643981      -0.0407025
5.075                   0.758195       0.0100661        0.0177964      0.00385682      -0.00413483     -0.00133845
                       0.0177894      0.00384002         0.751293       0.0064924      -0.00322881    -0.000407726
                     -0.00414059     -0.00135347      -0.00322624    -0.000404181         0.643536       -0.039058
5.076                   0.758489       0.0103055        0.0177998      0.00365012      -0.00415326     -0.00126424
                       0.0177919      0.00363391         0.751553      0.00680272      -0.00323948    -0.000361585
                     -0.00415988     -0.00127876      -0.00323671    -0.000358231         0.643113      -0.0374053
5.077                   0.758785       0.0105405         0.017801      0.00344427      -0.00417007     -0.00118983
                       0.0177921       0.0034287         0.751814      0.00710872      -0.00324952    -0.000315025
                      -0.0041775     -0.00120381      -0.00324657    -0.000311876         0.642713      -0.0357449
5.078                   0.759082       0.0107712        0.0177999      0.00323929      -0.00418524     -0.00111528
                       0.0177903       0.0032244         0.752077      0.00741046      -0.00325891    -0.000268055
                     -0.00419345     -0.00112867      -0.00325579    -0.000265119         0.642335      -0.0340772
5.079                    0.75938       0.0109975        0.0177967      0.00303518       -0.0041988     -0.00104063
                       0.0177863      0.00302102         0.752342       0.0077079      -0.00326763    -0.000220681
                     -0.00420774     -0.00105338      -0.00326435    -0.000217965          0.64198      -0.0324025
5.08                    0.759679       0.0112194        0.0177914      0.00283197      -0.00421074    -0.000965922
                       0.0177802      0.00281858         0.752608      0.00800104      -0.00327566    -0.000172915
                     -0.00422037    -0.000978001      -0.00327224    -0.000170429         0.641648      -0.0307215
5.081                   0.759979       0.0114369        0.0177839      0.00262967      -0.00422107    -0.000891197
                       0.0177721      0.00261707         0.752875      0.00828992      -0.00328298    -0.000124761
                     -0.00423135    -0.000902571      -0.00327944    -0.000122512         0.641339      -0.0290342
5.082                    0.76028       0.0116501        0.0177743      0.00242829       -0.0042298    -0.000816508
                       0.0177619      0.00241651         0.753144      0.00857456      -0.00328957    -7.62389e-05
                     -0.00424067    -0.000827143      -0.00328592    -7.42315e-05         0.641053      -0.0273416
5.083                   0.760581       0.0118589        0.0177626      0.00222784      -0.00423695    -0.000741888
                       0.0177497      0.00221692         0.753414      0.00885492      -0.00329541    -2.73533e-05
                     -0.00424836    -0.000751756      -0.00329167    -2.55933e-05         0.640791      -0.0256436
5.084                   0.760884       0.0120632        0.0177489      0.00202835      -0.00424252    -0.000667383
                       0.0177355       0.0020183         0.753686      0.00913108      -0.00330049     2.18768e-05
                     -0.00425441    -0.000676461      -0.00329668     2.33885e-05         0.640553      -0.0239408
5.085                   0.761188       0.0122632        0.0177332      0.00182982      -0.00424653    -0.000593037