! TOUCHSTONE file generated by CST MICROWAVE STUDIO
! Date and time: Wed Sep 30 08:00:40 2020
! Project name: Emma Lung Lower Right.cst
! Header version: 2018
! Port assignment regex: !\s*Touchstone port\s*([0-9]+)\s*=\s*(CST MWS port|CST DS port)\s*([0-9]+|Zmin|Zmax)\s*\(\"(.*)\"\)(\s*mode\s*([0-9]+))?.*
! Touchstone port assignment:
! Touchstone port 1 = CST MWS port 1 ("")
! Touchstone port 2 = CST MWS port 2 ("")
! Touchstone port 3 = CST MWS port 3 ("")
# GHz S RI R 50
5                       0.841572      0.00436363       -0.0148777      0.00269203       0.00117827      0.00020133
                      -0.0148613      0.00266373         0.814754        0.100637      0.000761413     0.000155352
                      0.00114899     0.000205194      0.000739391     0.000132558         0.651254      -0.0887682
5.001                   0.841706      0.00403503       -0.0148183       0.0028125       0.00118573     0.000176195
                      -0.0148037       0.0027836         0.815546         0.10011      0.000766776     0.000138728
                      0.00115686     0.000181804      0.000743667     0.000117461         0.650078      -0.0872863
5.002                   0.841837      0.00370533       -0.0147583      0.00293202       0.00119255     0.000150718
                      -0.0147456      0.00290265          0.81633       0.0995816      0.000771693      0.00012189
                       0.0011642     0.000158037      0.000747597     0.000102197         0.648916      -0.0857815
5.003                   0.841966      0.00337454       -0.0146978      0.00305061       0.00119871     0.000124919
                       -0.014687      0.00302087         0.817105       0.0990508      0.000776154     0.000104851
                      0.00117099     0.000133907      0.000751174     8.67737e-05         0.647769      -0.0842538
5.004                   0.842093      0.00304264       -0.0146367      0.00316826       0.00120421      9.8819e-05
                      -0.0146278      0.00313827         0.817871       0.0985183      0.000780151     8.76281e-05
                       0.0011772     0.000109427      0.000754389     7.11999e-05         0.646637      -0.0827033
5.005                   0.842217      0.00270965       -0.0145751      0.00328499       0.00120901      7.2438e-05
                      -0.0145681      0.00325486          0.81863        0.097984      0.000783675     7.02359e-05
                      0.00118282     8.46127e-05      0.000757235     5.54851e-05         0.645521        -0.08113
5.006                   0.842339      0.00237557       -0.0145131      0.00340079       0.00121312     4.57981e-05
                      -0.0145078      0.00337063         0.819379        0.097448      0.000786718     5.26908e-05
                      0.00118784      5.9481e-05      0.000759706     3.96389e-05         0.644422      -0.0795341
5.007                   0.842459       0.0020404       -0.0144505      0.00351568       0.00121652      1.8922e-05
                      -0.0144471      0.00348561         0.820121       0.0969105      0.000789273      3.5009e-05
                      0.00119222      3.4049e-05      0.000761794     2.36713e-05          0.64334      -0.0779157
5.008                   0.842576      0.00170413       -0.0143874      0.00362966       0.00121919    -8.16669e-06
                      -0.0143858      0.00359977         0.820855       0.0963713      0.000791335     1.72076e-05
                      0.00119596     8.33553e-06      0.000763492     7.59304e-06         0.642276      -0.0762749
5.009                   0.842691      0.00136678       -0.0143238      0.00374274       0.00122112     -3.5444e-05
                       -0.014324      0.00371314         0.821581       0.0958306      0.000792896    -6.96538e-07
                      0.00119904    -1.76401e-05      0.000764795    -8.58511e-06          0.64123      -0.0746119
5.01                    0.842803      0.00102835       -0.0142598      0.00385493        0.0012223    -6.28852e-05
                      -0.0142617      0.00382572         0.822299       0.0952885      0.000793953     -1.8686e-05
                      0.00120144    -4.38575e-05      0.000765697    -2.48519e-05         0.640203      -0.0729268
5.011                   0.842913     0.000688836       -0.0141953      0.00396623       0.00122272    -9.04651e-05
                      -0.0141989       0.0039375         0.823009        0.094745      0.000794501    -3.67433e-05
                      0.00120315    -7.02953e-05      0.000766191    -4.11957e-05         0.639195      -0.0712198
5.012                   0.843021      0.00034824       -0.0141303      0.00407665       0.00122237    -0.000118158
                      -0.0141355      0.00404849         0.823712       0.0942001      0.000794536    -5.48506e-05
                      0.00120415    -9.69313e-05      0.000766273    -5.76047e-05         0.638207      -0.0694911
5.013                   0.843126     6.56697e-06       -0.0140649      0.00418618       0.00122124    -0.000145936
                      -0.0140717      0.00415869         0.824407       0.0936538      0.000794055    -7.29897e-05
                      0.00120443    -0.000123742      0.000765939    -7.40663e-05         0.637239      -0.0677411
5.014                   0.843229    -0.000336181        -0.013999      0.00429486       0.00121933    -0.000173774
                      -0.0140073       0.0042681         0.825095       0.0931063      0.000793057    -9.11427e-05
                      0.00120398    -0.000150704      0.000765182    -9.05681e-05         0.636293      -0.0659697
5.015                   0.843329    -0.000680001       -0.0139327      0.00440266       0.00121663    -0.000201644
                      -0.0139425      0.00437673         0.825775       0.0925576      0.000791539    -0.000109291
                      0.00120278    -0.000177791      0.000764001    -0.000107097         0.635368      -0.0641773
5.016                   0.843427     -0.00102489       -0.0138659      0.00450961       0.00121314    -0.000229517
                      -0.0138771      0.00448458         0.826448       0.0920076      0.000789502    -0.000127417
                      0.00120082     -0.00020498      0.000762391     -0.00012364         0.634466      -0.0623643
5.017                   0.843522     -0.00137085       -0.0137988      0.00461572       0.00120884    -0.000257367
                      -0.0138113      0.00459165         0.827114       0.0914564      0.000786946    -0.000145501
                       0.0011981    -0.000232242      0.000760349    -0.000140184         0.633586      -0.0605308
5.018                   0.843615     -0.00171786       -0.0137312      0.00472097       0.00120375    -0.000285165
                       -0.013745      0.00469794         0.827772       0.0909041       0.00078387    -0.000163526
                       0.0011946    -0.000259552      0.000757873    -0.000156715          0.63273      -0.0586771
5.019                   0.843706     -0.00206594       -0.0136632       0.0048254       0.00119785    -0.000312881
                      -0.0136782      0.00480346         0.828424       0.0903507      0.000780278    -0.000181473
                      0.00119032    -0.000286882      0.000754961    -0.000173219         0.631898      -0.0568036
5.02                    0.843794     -0.00241507       -0.0135948        0.004929       0.00119115    -0.000340488
                      -0.0136109      0.00490819         0.829069       0.0897962      0.000776172    -0.000199324
                      0.00118525    -0.000314203      0.000751612    -0.000189682          0.63109      -0.0549106
5.021                    0.84388     -0.00276525        -0.013526      0.00503176       0.00118364    -0.000367956
                      -0.0135431      0.00501216         0.829707       0.0892407      0.000771554     -0.00021706
                      0.00117938    -0.000341486      0.000747825     -0.00020609         0.630308      -0.0529985
5.022                   0.843963     -0.00311648       -0.0134569      0.00513372       0.00117534    -0.000395256
                      -0.0134749      0.00511535         0.830338       0.0886841      0.000766429    -0.000234664
                      0.00117271    -0.000368704      0.000743599    -0.000222428         0.629551      -0.0510675
5.023                   0.844043     -0.00346875       -0.0133873      0.00523487       0.00116624     -0.00042236
                      -0.0134062      0.00521778         0.830962       0.0881265      0.000760801    -0.000252117
                      0.00116525    -0.000395825      0.000738934    -0.000238681          0.62882      -0.0491183
5.024                   0.844121     -0.00382206       -0.0133174      0.00533521       0.00115635    -0.000449238
                       -0.013337      0.00531943          0.83158       0.0875679      0.000754676    -0.000269402
                      0.00115698    -0.000422821      0.000733833    -0.000254836         0.628116      -0.0471511
5.025                   0.844197      -0.0041764       -0.0132471      0.00543475       0.00114568    -0.000475862
                      -0.0132674      0.00542032         0.832191       0.0870083      0.000748061    -0.000286501
                      0.00114791    -0.000449661      0.000728296    -0.000270877         0.627439      -0.0451664
5.026                    0.84427     -0.00453177       -0.0131765      0.00553351       0.00113422    -0.000502202
                      -0.0131974      0.00552043         0.832796       0.0864477      0.000740961    -0.000303397
                      0.00113804    -0.000476314      0.000722326     -0.00028679         0.626791      -0.0431646
5.027                    0.84434     -0.00488815       -0.0131054      0.00563149         0.001122    -0.000528231
                      -0.0131269      0.00561979         0.833394       0.0858862      0.000733385    -0.000320074
                      0.00112736    -0.000502751      0.000715924     -0.00030256          0.62617      -0.0411462
5.028                   0.844408     -0.00524555       -0.0130341      0.00572869       0.00110902    -0.000553921
                      -0.0130559      0.00571838         0.833986       0.0853238      0.000725341    -0.000336514
                       0.0011159     -0.00052894      0.000709095    -0.000318172         0.625579      -0.0391117
5.029                   0.844474     -0.00560395       -0.0129624      0.00582512       0.00109529    -0.000579242
                      -0.0129846      0.00581622         0.834572       0.0847605      0.000716838    -0.000352702
                      0.00110364    -0.000554851      0.000701842    -0.000333612         0.625017      -0.0370616
5.03                    0.844536     -0.00596336       -0.0128903       0.0059208       0.00108082    -0.000604169
                      -0.0129128      0.00591329         0.835151       0.0841963      0.000707886    -0.000368621
                       0.0010906    -0.000580454       0.00069417    -0.000348865         0.624485      -0.0349964
5.031                   0.844597     -0.00632376        -0.012818      0.00601571       0.00106563    -0.000628674
                      -0.0128406      0.00600961         0.835725       0.0836311      0.000698494    -0.000384257
                      0.00107678    -0.000605718      0.000686084    -0.000363917         0.623983      -0.0329166
5.032                   0.844654     -0.00668514       -0.0127452      0.00610989       0.00104972    -0.000652731
                       -0.012768      0.00610518         0.836292       0.0830651      0.000688675    -0.000399593
                       0.0010622    -0.000630613       0.00067759    -0.000378753         0.623513      -0.0308229
5.033                   0.844709      -0.0070475       -0.0126722      0.00620332       0.00103313    -0.000676313
                      -0.0126949          0.0062         0.836853       0.0824982      0.000678439    -0.000414617
                      0.00104687    -0.000655109      0.000668694     -0.00039336         0.623073      -0.0287158
5.034                   0.844761     -0.00741082       -0.0125989      0.00629602       0.00101586    -0.000699396
                      -0.0126215      0.00629406         0.837408       0.0819304      0.000667798    -0.000429314
                      0.00103079    -0.000679177      0.000659404    -0.000407722         0.622666       -0.026596
5.035                   0.844811     -0.00777511       -0.0125252        0.006388      0.000997923    -0.000721955
                      -0.0125477      0.00638739         0.837957       0.0813618      0.000656766    -0.000443671
                      0.00101399    -0.000702788      0.000649726    -0.000421828         0.622291      -0.0244639
5.036                   0.844858     -0.00814035       -0.0124512      0.00647926      0.000979351    -0.000743965
                      -0.0124735      0.00647996         0.838501       0.0807923      0.000645355    -0.000457674
                     0.000996473    -0.000725913       0.00063967    -0.000435662         0.621948      -0.0223203
5.037                   0.844902     -0.00850652       -0.0123769      0.00656981      0.000960157    -0.000765405
                      -0.0123989       0.0065718         0.839038        0.080222      0.000633578    -0.000471313
                      0.00097826    -0.000748523      0.000629243    -0.000449213         0.621639      -0.0201658
5.038                   0.844944     -0.00887363       -0.0123023      0.00665965      0.000940364    -0.000786251
                      -0.0123239      0.00666291          0.83957       0.0796509      0.000621451    -0.000484574
                     0.000959369    -0.000770593      0.000618456    -0.000462467         0.621364      -0.0180011
5.039                   0.844983     -0.00924166       -0.0122274       0.0067488      0.000919993    -0.000806483
                      -0.0122486      0.00675327         0.840096       0.0790789      0.000608988    -0.000497448
                     0.000939818    -0.000792095      0.000607317    -0.000475412         0.621122      -0.0158268
5.04                    0.845019     -0.00961059       -0.0121522      0.00683726      0.000899067    -0.000826079
                      -0.0121729      0.00684291         0.840616        0.078506      0.000596203    -0.000509923
                     0.000919628    -0.000813003      0.000595839    -0.000488036         0.620915      -0.0136438
5.041                   0.845052     -0.00998043       -0.0120767      0.00692504      0.000877608    -0.000845021
                      -0.0120968      0.00693183         0.841131       0.0779323      0.000583112     -0.00052199
                      0.00089882    -0.000833292       0.00058403    -0.000500327         0.620742      -0.0114526
5.042                   0.845083      -0.0103512       -0.0120009      0.00701213      0.000855643    -0.000863289
                      -0.0120204      0.00702002          0.84164       0.0773578       0.00056973    -0.000533641
                     0.000877418    -0.000852939      0.000571904    -0.000512274         0.620604     -0.00925402
5.043                   0.845111      -0.0107228       -0.0119248      0.00709857      0.000833195    -0.000880867
                      -0.0119436       0.0071075         0.842143       0.0767825      0.000556074    -0.000544867
                     0.000855445     -0.00087192      0.000559472    -0.000523866         0.620502     -0.00704874
5.044                   0.845136      -0.0110952       -0.0118485      0.00718434      0.000810291    -0.000897738
                      -0.0118665      0.00719426         0.842641       0.0762063      0.000542159    -0.000555659
                     0.000832926    -0.000890213      0.000546746    -0.000535094         0.620435     -0.00483767
5.045                   0.845159      -0.0114685       -0.0117718      0.00726945      0.000786957    -0.000913887
                      -0.0117891      0.00728032         0.843134       0.0756294      0.000528003    -0.000566013
                     0.000809887    -0.000907798      0.000533739    -0.000545947         0.620404     -0.00262146
5.046                   0.845178      -0.0118427       -0.0116949      0.00735392      0.000763221    -0.000929299
                      -0.0117113      0.00736567         0.843621       0.0750516      0.000513621     -0.00057592
                     0.000786355    -0.000924654      0.000520465    -0.000556416         0.620409    -0.000400911
5.047                   0.845195      -0.0122177       -0.0116176      0.00743775       0.00073911    -0.000943963
                      -0.0116332      0.00745032         0.844102        0.074473      0.000499031    -0.000585377
                     0.000762357    -0.000940763      0.000506936    -0.000566493         0.620451      0.00182315
5.048                   0.845209      -0.0125934       -0.0115401      0.00752094      0.000714652    -0.000957866
                      -0.0115548      0.00753428         0.844579       0.0738935       0.00048425    -0.000594378
                     0.000737924    -0.000956108      0.000493168    -0.000576169         0.620529      0.00404996
5.049                    0.84522        -0.01297       -0.0114623       0.0076035      0.000689876    -0.000970997
                      -0.0114761      0.00761755         0.845049       0.0733133      0.000469294    -0.000602919
                     0.000713083    -0.000970673      0.000479174    -0.000585437         0.620643      0.00627869
5.05                    0.845229      -0.0133474       -0.0113843      0.00768544      0.000664812    -0.000983348
                       -0.011397      0.00770013         0.845515       0.0727322      0.000454181    -0.000610997
                     0.000687867    -0.000984442      0.000464969     -0.00059429         0.620795      0.00850848
5.051                   0.845234      -0.0137255       -0.0113059      0.00776677      0.000639488     -0.00099491
                      -0.0113177      0.00778204         0.845975       0.0721503      0.000438928    -0.000618609
                     0.000662305    -0.000997403      0.000450567    -0.000602723         0.620984       0.0107385
5.052                   0.845236      -0.0141044       -0.0112273      0.00784749      0.000613935     -0.00100568
                       -0.011238      0.00786328          0.84643       0.0715677      0.000423551    -0.000625755
                     0.000636429     -0.00100954      0.000435985    -0.000610728          0.62121       0.0129678
5.053                   0.845236      -0.0144841       -0.0111484      0.00792761      0.000588181     -0.00101564
                      -0.0111581      0.00794384          0.84688       0.0709842      0.000408069    -0.000632432
                      0.00061027     -0.00102085      0.000421237    -0.000618303         0.621473       0.0151959
5.054                   0.845233      -0.0148644       -0.0110692      0.00800713      0.000562258     -0.00102481
                      -0.0110778      0.00802375         0.847324       0.0703999      0.000392497     -0.00063864
                     0.000583863     -0.00103132      0.000406338    -0.000625441         0.621773       0.0174216
5.055                   0.845226      -0.0152455       -0.0109897      0.00808605      0.000536195     -0.00103316
                      -0.0109973        0.008103         0.847763       0.0698148      0.000376853    -0.000644381
                     0.000557239     -0.00104095      0.000391305    -0.000632139         0.622111       0.0196442
5.056                   0.845217      -0.0156272       -0.0109099       0.0081644      0.000510022     -0.00104071
                      -0.0109165       0.0081816         0.848197       0.0692289      0.000361155    -0.000649653
                     0.000530432     -0.00104972      0.000376154    -0.000638395         0.622485       0.0218628
5.057                   0.845205      -0.0160097       -0.0108299      0.00824216       0.00048377     -0.00104745
                      -0.0108354      0.00825956         0.848626       0.0686422      0.000345417    -0.000654461
                     0.000503475     -0.00105763      0.000360899    -0.000644207         0.622898       0.0240764
5.058                    0.84519      -0.0163928       -0.0107496      0.00831935      0.000457469     -0.00105337
                       -0.010754      0.00833688          0.84905       0.0680547      0.000329656    -0.000658806
                     0.000476401     -0.00106469      0.000345557    -0.000649571         0.623347       0.0262843
5.059                   0.845172      -0.0167765        -0.010669      0.00839597      0.000431148      -0.0010585
                      -0.0106723      0.00841356         0.849468       0.0674665      0.000313889    -0.000662691
                     0.000449244     -0.00107088      0.000330144    -0.000654489         0.623834       0.0284856
5.06                    0.845151      -0.0171609       -0.0105881      0.00847203      0.000404836     -0.00106282
                      -0.0105903      0.00848963         0.849882       0.0668774      0.000298131     -0.00066612
                     0.000422039     -0.00107621      0.000314675    -0.000658959         0.624357       0.0306795
5.061                   0.845127      -0.0175458       -0.0105069      0.00854753      0.000378563     -0.00106635
                      -0.0105081      0.00856507          0.85029       0.0662876      0.000282398    -0.000669097
                     0.000394817     -0.00108068      0.000299167    -0.000662981         0.624918        0.032865
5.062                     0.8451      -0.0179314       -0.0104254      0.00862247      0.000352359     -0.00106908
                      -0.0104256      0.00863989         0.850694        0.065697      0.000266705    -0.000671627
                     0.000367613     -0.00108429      0.000283635    -0.000666558         0.625516       0.0350413
5.063                   0.845069      -0.0183176       -0.0103436      0.00869686       0.00032625     -0.00107103
                      -0.0103428      0.00871412         0.851092       0.0651056      0.000251067    -0.000673716
                     0.000340459     -0.00108705      0.000268094     -0.00066969          0.62615       0.0372076
5.064                   0.845036      -0.0187043       -0.0102616      0.00877071      0.000300267      -0.0010722
                      -0.0102598      0.00878774         0.851485       0.0645135      0.000235499    -0.000675369
                     0.000313387     -0.00108897      0.000252562     -0.00067238          0.62682       0.0393629
5.065                      0.845      -0.0190915       -0.0101792      0.00884402      0.000274435     -0.00107261
                      -0.0101764      0.00886076         0.851873       0.0639206      0.000220014    -0.000676594
                     0.000286432     -0.00109004      0.000237051    -0.000674631         0.627527       0.0415065
5.066                    0.84496      -0.0194792       -0.0100966      0.00891679      0.000248782     -0.00107227
                      -0.0100928      0.00893319         0.852256       0.0633269      0.000204626    -0.000677397
                     0.000259623     -0.00109029      0.000221577    -0.000676447         0.628269       0.0436376
5.067                   0.844918      -0.0198675       -0.0100136      0.00898903      0.000223334     -0.00107118
                       -0.010009      0.00900504         0.852634       0.0627326      0.000189349    -0.000677787
                     0.000232992     -0.00108972      0.000206156    -0.000677831         0.629047       0.0457551
5.068                   0.844872      -0.0202562      -0.00993034      0.00906074      0.000198117     -0.00106937
                     -0.00992481      0.00907631         0.853007       0.0621375      0.000174194     -0.00067777
                      0.00020657     -0.00108835      0.000190802    -0.000678789         0.629861       0.0478584
5.069                   0.844824      -0.0206454      -0.00984677      0.00913192      0.000173156     -0.00106683
                     -0.00984039      0.00914701         0.853375       0.0615417      0.000159176    -0.000677356
                     0.000180387     -0.00108618      0.000175529    -0.000679326         0.630709       0.0499466
5.07                    0.844772      -0.0210351      -0.00976289      0.00920258      0.000148475      -0.0010636
                      -0.0097557      0.00921715         0.853738       0.0609451      0.000144304    -0.000676554
                     0.000154471     -0.00108323       0.00016035    -0.000679449         0.631592       0.0520189
5.071                   0.844717      -0.0214251      -0.00967869      0.00927272      0.000124097     -0.00105968
                     -0.00967073      0.00928672         0.854096       0.0603479      0.000129591    -0.000675372
                     0.000128852     -0.00107952       0.00014528    -0.000679162          0.63251       0.0540746
5.072                   0.844659      -0.0218156      -0.00959418      0.00934234      0.000100045      -0.0010551
                     -0.00958548      0.00935573         0.854449         0.05975      0.000115047    -0.000673821
                     0.000103555     -0.00107506      0.000130332    -0.000678475         0.633461       0.0561128
5.073                   0.844597      -0.0222064      -0.00950934      0.00941145      7.63407e-05     -0.00104986
                     -0.00949995       0.0094242         0.854797       0.0591514      0.000100683     -0.00067191
                     7.86085e-05     -0.00106988      0.000115517    -0.000677393         0.634445       0.0581327
5.074                   0.844533      -0.0225976      -0.00942418      0.00948004      5.30037e-05     -0.00104399
                     -0.00941415      0.00949212          0.85514       0.0585521      8.65087e-05     -0.00066965
                     5.40366e-05     -0.00106398       0.00010085    -0.000675926         0.635463       0.0601338
5.075                   0.844465      -0.0229892      -0.00933868      0.00954812      3.00552e-05     -0.00103751
                     -0.00932806       0.0095595         0.855478       0.0579522      7.25324e-05    -0.000667051
                     2.98656e-05      -0.0010574      8.63409e-05    -0.000674082         0.636513        0.062115
5.076                   0.844394       -0.023381      -0.00925286       0.0096157      7.51208e-06     -0.00103044
                     -0.00924168      0.00962634         0.855811       0.0573517      5.87636e-05    -0.000664124
                      6.1161e-06     -0.00105015      7.20017e-05    -0.000671868         0.637595       0.0640759
5.077                    0.84432      -0.0237732       -0.0091667      0.00968276     -1.46059e-05     -0.00102279
                     -0.00915501      0.00969265         0.856139       0.0567505      4.52104e-05    -0.000660879
                    -1.71874e-05     -0.00104226      5.78439e-05    -0.000669296         0.638708       0.0660156
5.078                   0.844243      -0.0241656       -0.0090802      0.00974932     -3.62831e-05     -0.00101459
                     -0.00906805      0.00975843         0.856462       0.0561487      3.18796e-05    -0.000657328
                    -4.00249e-05     -0.00103374      4.38769e-05    -0.000666374         0.639852       0.0679336
5.079                   0.844162      -0.0245583      -0.00899335      0.00981537     -5.75037e-05     -0.00100586
                      -0.0089808      0.00982369          0.85678       0.0555464      1.87793e-05    -0.000653483
                    -6.23762e-05     -0.00102463      3.01121e-05    -0.000663112         0.641027        0.069829
5.08                    0.844078      -0.0249513      -0.00890616      0.00988092     -7.82529e-05    -0.000996625
                     -0.00889325      0.00988843         0.857093       0.0549435      5.91537e-06    -0.000649354
                    -8.42233e-05     -0.00101494      1.65578e-05    -0.000659521         0.642231       0.0717011
5.081                   0.843991      -0.0253444      -0.00881861      0.00994597     -9.85176e-05    -0.000986903
                     -0.00880539      0.00995265         0.857401         0.05434     -6.70651e-06    -0.000644953
                    -0.000105549     -0.00100471      3.22318e-06    -0.000655612         0.643465       0.0735497
5.082                     0.8439      -0.0257377      -0.00873071       0.0100105     -0.000118285    -0.000976718
                     -0.00871723       0.0100164         0.857704       0.0537359     -1.90808e-05    -0.000640291
                    -0.000126337     -0.00099395     -9.88325e-06    -0.000651394         0.644727       0.0753738
5.083                   0.843807      -0.0261312      -0.00864244       0.0100745     -0.000137544    -0.000966094
                     -0.00862875       0.0100796         0.858003       0.0531314     -3.12022e-05    -0.000635381
                    -0.000146572    -0.000982695     -2.27534e-05     -0.00064688         0.646017       0.0771728
5.084                    0.84371      -0.0265248      -0.00855381       0.0101381     -0.000156284    -0.000955054
                     -0.00853996       0.0101422         0.858296       0.0525263     -4.30672e-05    -0.000630233
                    -0.000166241    -0.000970969     -3.53805e-05     -0.00064208         0.647334       0.0789465
5.085                   0.843609      -0.0269185       -0.0084648       0.0102011     -0.000174496    -0.000943621