! TOUCHSTONE file generated by CST MICROWAVE STUDIO
! Date and time: Wed Sep 30 10:36:49 2020
! Project name: Emma Lung Lower Right.cst
! Header version: 2018
! Port assignment regex: !\s*Touchstone port\s*([0-9]+)\s*=\s*(CST MWS port|CST DS port)\s*([0-9]+|Zmin|Zmax)\s*\(\"(.*)\"\)(\s*mode\s*([0-9]+))?.*
! Touchstone port assignment:
! Touchstone port 1 = CST MWS port 1 ("")
! Touchstone port 2 = CST MWS port 2 ("")
! Touchstone port 3 = CST MWS port 3 ("")
# GHz S RI R 50
5                       0.841562      0.00432971        -0.014886      0.00268516       0.00114642     0.000224536
                      -0.0148575      0.00265691          0.81475        0.100636      0.000740477     0.000146541
                      0.00111375     0.000224145      0.000740523     0.000121742          0.65125       -0.088795
5.001                   0.841694      0.00400144        -0.014827      0.00280614       0.00115487     0.000200923
                      -0.0148005      0.00277657         0.815543         0.10011      0.000745526     0.000131155
                      0.00112236     0.000202505       0.00074412     0.000106631         0.650073      -0.0873127
5.002                   0.841824      0.00367216       -0.0147673       0.0029262       0.00116276     0.000176926
                       -0.014743      0.00289544         0.816326        0.099581      0.000750201     0.000115562
                      0.00113053     0.000180461      0.000747374     9.13938e-05          0.64891      -0.0858076
5.003                   0.841952      0.00334188       -0.0147071      0.00304534       0.00117007     0.000152559
                      -0.0146849      0.00301353         0.817101       0.0990505      0.000754491     9.97719e-05
                      0.00113823     0.000158021      0.000750279     7.60389e-05         0.647762      -0.0842794
5.004                   0.842077      0.00301059       -0.0146464      0.00316355       0.00117678     0.000127841
                      -0.0146264      0.00313083         0.817868       0.0985181      0.000758387     8.37961e-05
                      0.00114545     0.000135194      0.000752832     6.05747e-05         0.646629      -0.0827284
5.005                     0.8422      0.00267828       -0.0145851      0.00328086       0.00118287     0.000102788
                      -0.0145673      0.00324737         0.818626       0.0979841       0.00076188     6.76464e-05
                      0.00115216     0.000111992      0.000755027     4.50095e-05         0.645512      -0.0811545
5.006                    0.84232      0.00234497       -0.0145232      0.00339725       0.00118833     7.74189e-05
                      -0.0145076      0.00336313         0.819376       0.0974483      0.000764962      5.1335e-05
                      0.00115835     8.84262e-05      0.000756858     2.93524e-05         0.644412       -0.079558
5.007                   0.842439      0.00201065       -0.0144608      0.00351275       0.00119313     5.17527e-05
                      -0.0144474      0.00347813         0.820118       0.0969108      0.000767625     3.48747e-05
                        0.001164     6.45094e-05      0.000758323     1.36123e-05          0.64333       -0.077939
5.008                   0.842554      0.00167531       -0.0143979      0.00362734       0.00119727     2.58097e-05
                      -0.0143868      0.00359237         0.820852       0.0963719       0.00076986     1.82784e-05
                      0.00116908     4.02555e-05      0.000759415    -2.20139e-06         0.642264      -0.0762975
5.009                   0.842668      0.00133896       -0.0143345      0.00374104       0.00120073    -3.89134e-07
                      -0.0143255      0.00370585         0.821578       0.0958314      0.000771661     1.55969e-06
                      0.00117357     1.56797e-05      0.000760132    -1.80791e-05         0.641218      -0.0746339
5.01                    0.842779      0.00100159       -0.0142705      0.00385384        0.0012035    -2.68221e-05
                      -0.0142638      0.00381856         0.822296       0.0952894      0.000773021    -1.52675e-05
                      0.00117747    -9.20211e-06      0.000760469    -3.40109e-05         0.640189      -0.0729481
5.011                   0.842888     0.000663204       -0.0142061      0.00396575       0.00120555    -5.34667e-05
                      -0.0142015      0.00393052         0.823006        0.094746      0.000773934    -3.21891e-05
                      0.00118074    -3.43728e-05      0.000760422    -4.99871e-05         0.639181      -0.0712404
5.012                   0.842995     0.000323795       -0.0141411      0.00407679       0.00120689    -8.02998e-05
                      -0.0141387      0.00404172         0.823709       0.0942012      0.000774394    -4.91904e-05
                      0.00118338    -5.98142e-05       0.00075999     -6.5997e-05         0.638192      -0.0695109
5.013                   0.843099    -1.66375e-05       -0.0140757      0.00418694       0.00120749    -0.000107297
                      -0.0140753      0.00415217         0.824404       0.0936551      0.000774397    -6.62565e-05
                      0.00118536    -8.55068e-05      0.000759167    -8.20303e-05         0.637224        -0.06776
5.014                   0.843201    -0.000358096       -0.0140098      0.00429623       0.00120734    -0.000134435
                      -0.0140115      0.00426187         0.825092       0.0931077      0.000773937    -8.33722e-05
                      0.00118667    -0.000111431      0.000757952     -9.8076e-05         0.636277      -0.0659879
5.015                     0.8433    -0.000700583       -0.0139434      0.00440464       0.00120645    -0.000161686
                      -0.0139471      0.00437081         0.825772       0.0925591      0.000773012    -0.000100522
                      0.00118729    -0.000137564      0.000756343    -0.000114123         0.635352      -0.0641947
5.016                   0.843397      -0.0010441       -0.0138765      0.00451219       0.00120479    -0.000189027
                      -0.0138822        0.004479         0.826445       0.0920092      0.000771618     -0.00011769
                       0.0011872    -0.000163885      0.000754336    -0.000130161         0.634449      -0.0623808
5.017                   0.843492     -0.00138865       -0.0138092      0.00461888       0.00120236     -0.00021643
                      -0.0138168      0.00458644         0.827111       0.0914581      0.000769751    -0.000134861
                      0.00118641    -0.000190371      0.000751932    -0.000146178         0.633569      -0.0605464
5.018                   0.843584     -0.00173423       -0.0137415      0.00472472       0.00119915    -0.000243869
                      -0.0137509      0.00469312          0.82777       0.0909059      0.000767412    -0.000152019
                      0.00118488    -0.000216998      0.000749127    -0.000162163         0.632713      -0.0586918
5.019                   0.843674     -0.00208085       -0.0136733       0.0048297       0.00119516    -0.000271317
                      -0.0136844      0.00479905         0.828422       0.0903526      0.000764598    -0.000169146
                      0.00118261    -0.000243739      0.000745922    -0.000178103          0.63188      -0.0568175
5.02                    0.843762     -0.00242851       -0.0136046      0.00493385       0.00119038    -0.000298745
                      -0.0136175      0.00490423         0.829067       0.0897982      0.000761308    -0.000186228
                      0.00117958    -0.000270571      0.000742316    -0.000193988         0.631072      -0.0549236
5.021                   0.843847     -0.00277721       -0.0135356      0.00503715       0.00118482    -0.000326126
                        -0.01355      0.00500865         0.829705       0.0892427      0.000757543    -0.000203247
                      0.00117579    -0.000297466      0.000738309    -0.000209804         0.630289      -0.0530107
5.022                    0.84393     -0.00312694       -0.0134661      0.00513962       0.00117846    -0.000353431
                      -0.0134821      0.00511232         0.830336       0.0886861      0.000753304    -0.000220186
                      0.00117123    -0.000324397        0.0007339    -0.000225541         0.629532       -0.051079
5.023                   0.844011     -0.00347772       -0.0133962      0.00524126        0.0011713    -0.000380633
                      -0.0134136      0.00521524         0.830961       0.0881285      0.000748591    -0.000237031
                      0.00116589    -0.000351337      0.000729091    -0.000241185         0.628801      -0.0491289
5.024                   0.844089     -0.00382954        -0.013326      0.00534208       0.00116336    -0.000407702
                      -0.0133447       0.0053174         0.831579         0.08757      0.000743408    -0.000253763
                      0.00115976    -0.000378256      0.000723883    -0.000256725         0.628097      -0.0471608
5.025                   0.844164      -0.0041824       -0.0132553      0.00544208       0.00115462     -0.00043461
                      -0.0132753       0.0054188          0.83219       0.0870104      0.000737757    -0.000270366
                      0.00115283    -0.000405126      0.000718278    -0.000272149         0.627421      -0.0451753
5.026                   0.844237      -0.0045363       -0.0131843      0.00554127       0.00114509    -0.000461327
                      -0.0132053      0.00551945         0.832795       0.0864499      0.000731641    -0.000286825
                      0.00114511    -0.000431917      0.000712277    -0.000287443         0.626772      -0.0431727
5.027                   0.844308     -0.00489124       -0.0131128      0.00563965       0.00113478    -0.000487825
                       -0.013135      0.00561934         0.833393       0.0858884      0.000725065    -0.000303122
                      0.00113659    -0.000458599      0.000705883    -0.000302596         0.626152      -0.0411535
5.028                   0.844376     -0.00524722       -0.0130411      0.00573723       0.00112368    -0.000514075
                      -0.0130641      0.00571847         0.833985        0.085326      0.000718034    -0.000319242
                      0.00112726    -0.000485142        0.0006991    -0.000317594          0.62556      -0.0391182
5.029                   0.844442     -0.00560423       -0.0129689      0.00583403       0.00111181    -0.000540048
                      -0.0129928      0.00581685         0.834571       0.0847626      0.000710553    -0.000335168
                      0.00111713    -0.000511515       0.00069193    -0.000332427         0.624998      -0.0370674
5.03                    0.844505     -0.00596228       -0.0128964      0.00593003       0.00109918    -0.000565715
                       -0.012921      0.00591446         0.835151       0.0841984      0.000702629    -0.000350886
                       0.0011062    -0.000537687      0.000684377    -0.000347082         0.624467      -0.0350015
5.031                   0.844566     -0.00632136       -0.0128235      0.00602525       0.00108579    -0.000591049
                      -0.0128488      0.00601132         0.835724       0.0836332      0.000694268    -0.000366379
                      0.00109448    -0.000563627      0.000676447    -0.000361545         0.623965      -0.0329211
5.032                   0.844624     -0.00668147       -0.0127503       0.0061197       0.00107164    -0.000616022
                      -0.0127761      0.00610743         0.836291       0.0830672      0.000685478    -0.000381631
                      0.00108195    -0.000589304      0.000668143    -0.000375806         0.623495      -0.0308267
5.033                   0.844679      -0.0070426       -0.0126768      0.00621339       0.00105677    -0.000640605
                       -0.012703      0.00620277         0.836853       0.0825003      0.000676268    -0.000396629
                      0.00106864    -0.000614686      0.000659472    -0.000389851         0.623056      -0.0287189
5.034                   0.844732     -0.00740475       -0.0126029       0.0063063       0.00104117     -0.00066477
                      -0.0126294      0.00629737         0.837408       0.0819325      0.000666646    -0.000411357
                      0.00105454    -0.000639743      0.000650439     -0.00040367         0.622649      -0.0265985
5.035                   0.844783     -0.00776791       -0.0125287      0.00639847       0.00102485    -0.000688493
                      -0.0125554       0.0063912         0.837957       0.0813638      0.000656621    -0.000425802
                      0.00103967    -0.000664443      0.000641051     -0.00041725         0.622274      -0.0244658
5.036                   0.844831     -0.00813209       -0.0124542      0.00648989       0.00100785    -0.000711745
                       -0.012481      0.00648428         0.838501       0.0807943      0.000646205    -0.000439949
                      0.00102404    -0.000688755      0.000631314     -0.00043058         0.621932      -0.0223216
5.037                   0.844876     -0.00849726       -0.0123793      0.00658057       0.00099016    -0.000734502
                      -0.0124062      0.00657661         0.839038       0.0802239      0.000635406    -0.000453785
                      0.00100765     -0.00071265      0.000621236    -0.000443649         0.621623      -0.0201666
5.038                   0.844918     -0.00886343       -0.0123042      0.00667052       0.00097181    -0.000756737
                       -0.012331      0.00666819          0.83957       0.0796527      0.000624238    -0.000467297
                     0.000990516    -0.000736096      0.000610825    -0.000456444         0.621347      -0.0180014
5.039                   0.844958     -0.00923059       -0.0122288      0.00675974      0.000952816    -0.000778427
                      -0.0122554      0.00675902         0.840096       0.0790806      0.000612711    -0.000480472
                      0.00097266    -0.000759064      0.000600088    -0.000468956         0.621106      -0.0158267
5.04                    0.844996     -0.00959872        -0.012153      0.00684824      0.000933197    -0.000799549
                      -0.0121794       0.0068491         0.840617       0.0785077      0.000600837    -0.000493299
                     0.000954092    -0.000781525      0.000589036    -0.000481174         0.620899      -0.0136432
5.041                    0.84503     -0.00996783        -0.012077      0.00693604      0.000912974    -0.000820077
                       -0.012103      0.00693844         0.841131        0.077934       0.00058863    -0.000505766
                     0.000934831     -0.00080345      0.000577676    -0.000493087         0.620727      -0.0114516
5.042                   0.845062      -0.0103379       -0.0120006      0.00702313      0.000892167    -0.000839992
                      -0.0120262      0.00702703         0.841641       0.0773594      0.000576102    -0.000517861
                     0.000914893    -0.000824811      0.000566018    -0.000504686         0.620589     -0.00925268
5.043                   0.845091      -0.0107089        -0.011924      0.00710952      0.000870798    -0.000859272
                      -0.0119491      0.00711489         0.842144        0.076784      0.000563268    -0.000529576
                     0.000894301    -0.000845581      0.000554073     -0.00051596         0.620487     -0.00704716
5.044                   0.845117      -0.0110809       -0.0118471      0.00719522      0.000848892    -0.000877896
                      -0.0118716        0.007202         0.842642       0.0762077       0.00055014    -0.000540899
                     0.000873072    -0.000865733      0.000541851    -0.000526901         0.620421      -0.0048357
5.045                   0.845141      -0.0114537       -0.0117699      0.00728024      0.000826472    -0.000895845
                      -0.0117937      0.00728839         0.843135       0.0756307      0.000536735    -0.000551822
                     0.000851232    -0.000885242      0.000529363      -0.0005375          0.62039     -0.00261926
5.046                   0.845162      -0.0118275       -0.0116925      0.00736458      0.000803562    -0.000913101
                      -0.0117155      0.00737404         0.843622       0.0750528      0.000523066    -0.000562336
                     0.000828801    -0.000904084      0.000516619    -0.000547747         0.620396    -0.000398488
5.047                    0.84518      -0.0122022       -0.0116147      0.00744826      0.000780189    -0.000929647
                      -0.0116369      0.00745897         0.844103       0.0744741      0.000509148    -0.000572434
                     0.000805807    -0.000922234      0.000503632    -0.000557636         0.620438      0.00182578
5.048                   0.845195      -0.0125778       -0.0115367      0.00753128      0.000756379    -0.000945466
                      -0.0115581      0.00754318          0.84458       0.0738946      0.000494997    -0.000582107
                     0.000782274     -0.00093967      0.000490413    -0.000567158         0.620516       0.0040528
5.049                   0.845207      -0.0129543       -0.0114584      0.00761365      0.000732159    -0.000960544
                      -0.0114788      0.00762668          0.84505       0.0733142      0.000480629     -0.00059135
                      0.00075823     -0.00095637      0.000476974    -0.000576306         0.620631      0.00628164
5.05                    0.845216      -0.0133316       -0.0113799      0.00769537      0.000707556    -0.000974867
                      -0.0113993      0.00770945         0.845516       0.0727331      0.000466059    -0.000600157
                     0.000733702    -0.000972316      0.000463328    -0.000585074         0.620783      0.00851162
5.051                   0.845223      -0.0137098       -0.0113011      0.00777645      0.000682599    -0.000988422
                      -0.0113195      0.00779152         0.845976       0.0721511      0.000451304    -0.000608522
                     0.000708719    -0.000987487      0.000449489    -0.000593454         0.620972       0.0107417
5.052                   0.845227      -0.0140888        -0.011222      0.00785691      0.000657317      -0.0010012
                      -0.0112393      0.00787289         0.846431       0.0715684      0.000436378    -0.000616441
                     0.000683311     -0.00100187      0.000435467    -0.000601443         0.621198       0.0129713
5.053                   0.845227      -0.0144686       -0.0111427      0.00793674      0.000631738     -0.00101318
                      -0.0111588      0.00795356         0.846881       0.0709848        0.0004213    -0.000623909
                     0.000657509     -0.00101544      0.000421278    -0.000609034         0.621462       0.0151994
5.054                   0.845225      -0.0148493       -0.0110631      0.00801595      0.000605893     -0.00102437
                      -0.0110781      0.00803354         0.847325       0.0704004      0.000406085    -0.000630925
                     0.000631344     -0.00102818      0.000406934    -0.000616222         0.621762       0.0174251
5.055                    0.84522      -0.0152306       -0.0109832      0.00809456      0.000579811     -0.00103476
                       -0.010997      0.00811284         0.847764       0.0698152       0.00039075    -0.000637485
                     0.000604848      -0.0010401      0.000392449    -0.000623004           0.6221       0.0196477
5.056                   0.845212      -0.0156128       -0.0109031      0.00817256      0.000553523     -0.00104433
                      -0.0109156      0.00819145         0.848198       0.0692293      0.000375311    -0.000643587
                     0.000578055     -0.00105116      0.000377837    -0.000629377         0.622475       0.0218662
5.057                   0.845201      -0.0159957       -0.0108227      0.00824997      0.000527057     -0.00105308
                       -0.010834       0.0082694         0.848627       0.0686425      0.000359785    -0.000649231
                     0.000550997     -0.00106136      0.000363112    -0.000635336         0.622888       0.0240799
5.058                   0.845187      -0.0163793        -0.010742      0.00832679      0.000500446     -0.00106101
                      -0.0107521      0.00834667         0.849051       0.0680549      0.000344187    -0.000654416
                     0.000523707      -0.0010707      0.000348287    -0.000640879         0.623337       0.0262879
5.059                   0.845169      -0.0167637       -0.0106611      0.00840302       0.00047372     -0.00106812
                      -0.0106699      0.00842328          0.84947       0.0674666      0.000328535    -0.000659143
                     0.000496221     -0.00107916      0.000333378    -0.000646006         0.623824       0.0284891
5.06                    0.845149      -0.0171487       -0.0105799      0.00847868      0.000446909     -0.00107441
                      -0.0105874      0.00849924         0.849883       0.0668774      0.000312844    -0.000663413
                     0.000468573     -0.00108674      0.000318397    -0.000650713         0.624348        0.030683
5.061                   0.845126      -0.0175344       -0.0104985      0.00855377      0.000420045     -0.00107987
                      -0.0105047      0.00857455         0.850291       0.0662875      0.000297131    -0.000667226
                     0.000440797     -0.00109344      0.000303359    -0.000655001         0.624909       0.0328684
5.062                   0.845099      -0.0179207       -0.0104168       0.0086283      0.000393157     -0.00108451
                      -0.0104217      0.00864922         0.850695       0.0656968      0.000281411    -0.000670586
                     0.000412928     -0.00109924      0.000288279     -0.00065887         0.625506       0.0350447
5.063                    0.84507      -0.0183076       -0.0103348      0.00870226      0.000366275     -0.00108833
                      -0.0103384      0.00872325         0.851093       0.0651054        0.0002657    -0.000673496
                        0.000385     -0.00110416       0.00027317    -0.000662319         0.626141        0.037211
5.064                   0.845037      -0.0186952       -0.0102525      0.00877568      0.000339429     -0.00109133
                      -0.0102549      0.00879666         0.851486       0.0645132      0.000250014    -0.000675958
                      0.00035705     -0.00110819      0.000258046     -0.00066535         0.626811       0.0393662
5.065                   0.845002      -0.0190833         -0.01017      0.00884854       0.00031265     -0.00109353
                      -0.0101711      0.00886944         0.851874       0.0639203      0.000234368    -0.000677978
                      0.00032911     -0.00111134      0.000242922    -0.000667965         0.627518       0.0415097
5.066                   0.844963       -0.019472       -0.0100872      0.00892087      0.000285966     -0.00109492
                       -0.010087      0.00894161         0.852257       0.0633266      0.000218775     -0.00067956
                     0.000301216      -0.0011136      0.000227811    -0.000670165          0.62826       0.0436407
5.067                   0.844921      -0.0198612       -0.0100041      0.00899266      0.000259406     -0.00109551
                      -0.0100027      0.00901318         0.852635       0.0627321      0.000203252     -0.00068071
                     0.000273403     -0.00111499      0.000212728    -0.000671952         0.629039       0.0457583
5.068                   0.844875      -0.0202509      -0.00992075      0.00906392      0.000233001     -0.00109532
                     -0.00991819      0.00908414         0.853008        0.062137      0.000187813    -0.000681433
                     0.000245702     -0.00111551      0.000197684    -0.000673331         0.629852       0.0478615
5.069                   0.844827      -0.0206411      -0.00983709      0.00913465      0.000206775     -0.00109436
                     -0.00983337      0.00915451         0.853376       0.0615411       0.00017247    -0.000681735
                      0.00021815     -0.00111516      0.000182695    -0.000674305           0.6307       0.0499497
5.07                    0.844775      -0.0210317      -0.00975316      0.00920485      0.000180758     -0.00109263
                     -0.00974831       0.0092243         0.853738       0.0609446      0.000157239    -0.000681625
                     0.000190777     -0.00111397      0.000167772    -0.000674878         0.631583        0.052022
5.071                   0.844721      -0.0214228      -0.00966892      0.00927454      0.000154975     -0.00109014
                     -0.00966298       0.0092935         0.854096       0.0603473      0.000142131    -0.000681109
                     0.000163616     -0.00111194       0.00015293    -0.000675054         0.632501       0.0540777
5.072                   0.844663      -0.0218143       -0.0095844      0.00934371      0.000129453     -0.00108692
                      -0.0095774      0.00936213         0.854449       0.0597493      0.000127159    -0.000680195
                       0.0001367     -0.00110907       0.00013818     -0.00067484         0.633452       0.0561159
5.073                   0.844601      -0.0222062      -0.00949957      0.00941237      0.000104218     -0.00108298
                     -0.00949157      0.00943019         0.854797       0.0591507      0.000112336    -0.000678892
                     0.000110058      -0.0011054      0.000123535    -0.000674241         0.634436       0.0581359
5.074                   0.844537      -0.0225985      -0.00941444      0.00948053      7.92923e-05     -0.00107832
                     -0.00940548      0.00949769          0.85514       0.0585514       9.7673e-05    -0.000677208
                     8.37215e-05     -0.00110093      0.000109007    -0.000673262         0.635454        0.060137
5.075                   0.844469      -0.0229911      -0.00932901      0.00954817      5.47019e-05     -0.00107298
                     -0.00931912      0.00956464         0.855478       0.0579515      8.31818e-05    -0.000675153
                     5.77189e-05     -0.00109568      9.46078e-05    -0.000671911         0.636504       0.0621183
5.076                   0.844398       -0.023384      -0.00924326      0.00961532      3.04681e-05     -0.00106696
                     -0.00923251      0.00963104         0.855811       0.0573509      6.88725e-05    -0.000672736
                     3.20784e-05     -0.00108967      8.03484e-05    -0.000670195         0.637585       0.0640793
5.077                   0.844323      -0.0237772      -0.00915719      0.00968197      6.61294e-06     -0.00106028
                     -0.00914563       0.0096969         0.856139       0.0567498      5.47559e-05    -0.000669967
                     6.82781e-06     -0.00108292      6.62401e-05     -0.00066812         0.638699        0.066019
5.078                   0.844245      -0.0241706      -0.00907081      0.00974812      -1.6842e-05     -0.00105297
                     -0.00905848      0.00976222         0.856462        0.056148      4.08411e-05    -0.000666856
                    -1.80069e-05     -0.00107544      5.22935e-05    -0.000665696         0.639843       0.0679371
5.079                   0.844164      -0.0245643      -0.00898409      0.00981377      -3.9878e-05     -0.00104504
                     -0.00897106      0.00982701          0.85678       0.0555456       2.7138e-05    -0.000663414
                    -4.24003e-05     -0.00106727       3.8519e-05     -0.00066293         0.641017       0.0698326
5.08                     0.84408      -0.0249582      -0.00889705      0.00987893     -6.24742e-05     -0.00103652
                     -0.00888337      0.00989127         0.857093       0.0549427      1.36549e-05    -0.000659651
                    -6.63287e-05     -0.00105841      2.49262e-05     -0.00065983         0.642221        0.071705
5.081                   0.843992      -0.0253522      -0.00880967      0.00994359      -8.4614e-05     -0.00102742
                      -0.0087954      0.00995501         0.857401       0.0543392      4.00007e-07    -0.000655579
                    -8.97696e-05     -0.00104891      1.15246e-05    -0.000656407         0.643455       0.0735536
5.082                   0.843901      -0.0257465      -0.00872195       0.0100078      -0.00010628     -0.00101776
                     -0.00870715       0.0100182         0.857704       0.0537351     -1.26192e-05    -0.000651209
                    -0.000112701     -0.00103877     -1.67709e-06    -0.000652667         0.644717        0.075378
5.083                   0.843806      -0.0261408      -0.00863389       0.0100714     -0.000127456     -0.00100758
                     -0.00861861       0.0100809         0.858003       0.0531306     -2.53954e-05    -0.000646551
                    -0.000135103     -0.00102803     -1.46698e-05    -0.000648623         0.646006       0.0771773
5.084                   0.843709      -0.0265352      -0.00854547       0.0101346     -0.000148128    -0.000996885
                     -0.00852979       0.0101431         0.858296       0.0525256     -3.79224e-05    -0.000641618
                    -0.000156956     -0.00101671      -2.7446e-05    -0.000644282         0.647324       0.0789512
5.085                   0.843607      -0.0269297      -0.00845669       0.0101973     -0.000168282    -0.000985707