! TOUCHSTONE file generated by CST MICROWAVE STUDIO
! Date and time: Sat Jun 27 17:12:45 2020
! Project name: Human Lung Lower Right.cst
! Header version: 2018
! Port assignment regex: !\s*Touchstone port\s*([0-9]+)\s*=\s*(CST MWS port|CST DS port)\s*([0-9]+|Zmin|Zmax)\s*\(\"(.*)\"\)(\s*mode\s*([0-9]+))?.*
! Touchstone port assignment:
! Touchstone port 1 = CST MWS port 1 ("")
! Touchstone port 2 = CST MWS port 2 ("")
! Touchstone port 3 = CST MWS port 3 ("")
# GHz S RI R 50
5                       0.805486      -0.0434028       0.00192034      0.00487246      4.07289e-05    -7.11659e-05
                      0.00191696       0.0048878         0.809563       -0.022193     -3.49996e-05    -4.01977e-05
                     4.08074e-05    -6.90969e-05     -3.49747e-05    -4.02087e-05         0.805073       0.0338603
5.001                   0.805293      -0.0434654       0.00195632      0.00486639      3.92683e-05    -7.17948e-05
                      0.00195353      0.00488171         0.809525      -0.0222876     -3.58939e-05    -3.94944e-05
                     3.94204e-05      -6.975e-05     -3.58696e-05    -3.95064e-05         0.805446       0.0336818
5.002                   0.805099      -0.0435271       0.00199251      0.00486004      3.78011e-05     -7.2394e-05
                      0.00199029      0.00487531         0.809487      -0.0223826     -3.67715e-05    -3.87693e-05
                     3.80249e-05    -7.03755e-05      -3.6748e-05    -3.87822e-05         0.805815        0.033501
5.003                   0.804905      -0.0435881       0.00202888      0.00485339      3.63276e-05    -7.29632e-05
                      0.00202724       0.0048686         0.809448      -0.0224779     -3.76319e-05    -3.80227e-05
                     3.66216e-05    -7.09735e-05     -3.76091e-05    -3.80366e-05         0.806181       0.0333179
5.004                    0.80471      -0.0436482       0.00206545      0.00484644      3.48484e-05    -7.35028e-05
                      0.00206437      0.00486157         0.809407      -0.0225736     -3.84746e-05    -3.72552e-05
                     3.52109e-05    -7.15439e-05     -3.84526e-05    -3.72699e-05         0.806543       0.0331325
5.005                   0.804515      -0.0437074       0.00210221      0.00483918      3.33642e-05    -7.40125e-05
                      0.00210168      0.00485422         0.809366      -0.0226696      -3.9299e-05    -3.64673e-05
                     3.37933e-05    -7.20866e-05     -3.92778e-05    -3.64829e-05         0.806902       0.0329449
5.006                   0.804318      -0.0437658       0.00213914      0.00483161      3.18755e-05    -7.44927e-05
                      0.00213917      0.00484652         0.809324      -0.0227658     -4.01046e-05    -3.56595e-05
                     3.23693e-05    -7.26017e-05     -4.00843e-05    -3.56759e-05         0.807258       0.0327552
5.007                   0.804122      -0.0438234       0.00217626      0.00482371      3.03828e-05    -7.49432e-05
                      0.00217682      0.00483849          0.80928      -0.0228624     -4.08909e-05    -3.48323e-05
                     3.09395e-05    -7.30891e-05     -4.08715e-05    -3.48495e-05         0.807611       0.0325633
5.008                   0.803924      -0.0438801       0.00221354      0.00481548      2.88867e-05    -7.53644e-05
                      0.00221463       0.0048301         0.809236      -0.0229593     -4.16574e-05    -3.39864e-05
                     2.95043e-05     -7.3549e-05      -4.1639e-05    -3.40043e-05          0.80796       0.0323693
5.009                   0.803726       -0.043936       0.00225099      0.00480691      2.73876e-05    -7.57561e-05
                       0.0022526      0.00482136          0.80919      -0.0230565     -4.24038e-05    -3.31223e-05
                     2.80642e-05    -7.39811e-05     -4.23862e-05    -3.31408e-05         0.808306       0.0321733
5.01                    0.803528       -0.043991        0.0022886        0.004798      2.58863e-05    -7.61185e-05
                      0.00229072      0.00481226         0.809144      -0.0231539     -4.31294e-05    -3.22405e-05
                     2.66197e-05    -7.43857e-05     -4.31129e-05    -3.22596e-05         0.808649       0.0319753
5.011                   0.803329      -0.0440452       0.00232637      0.00478874       2.4383e-05    -7.64518e-05
                      0.00232898      0.00480279         0.809096      -0.0232516      -4.3834e-05    -3.13416e-05
                     2.51713e-05    -7.47626e-05     -4.38184e-05    -3.13613e-05         0.808989       0.0317753
5.012                   0.803129      -0.0440985       0.00236428      0.00477912      2.28785e-05     -7.6756e-05
                      0.00236738      0.00479295         0.809047      -0.0233496     -4.45171e-05    -3.04263e-05
                     2.37195e-05     -7.5112e-05     -4.45025e-05    -3.04465e-05         0.809325       0.0315733
5.013                   0.802929       -0.044151       0.00240234      0.00476913      2.13732e-05    -7.70313e-05
                      0.00240591      0.00478273         0.808998      -0.0234479     -4.51783e-05     -2.9495e-05
                     2.22647e-05    -7.54339e-05     -4.51647e-05    -2.95157e-05         0.809659       0.0313694
5.014                   0.802728      -0.0442026       0.00244054      0.00475878      1.98675e-05    -7.72778e-05
                      0.00244456      0.00477212         0.808947      -0.0235463     -4.58172e-05    -2.85486e-05
                     2.08075e-05    -7.57283e-05     -4.58047e-05    -2.85696e-05         0.809989       0.0311637
5.015                   0.802526      -0.0442533       0.00247886      0.00474804      1.83621e-05    -7.74957e-05
                      0.00248333      0.00476112         0.808895      -0.0236451     -4.64335e-05    -2.75874e-05
                     1.93483e-05    -7.59952e-05     -4.64221e-05    -2.76089e-05         0.810316       0.0309561
5.016                   0.802324      -0.0443032       0.00251731      0.00473692      1.68573e-05     -7.7685e-05
                      0.00252221      0.00474973         0.808842       -0.023744      -4.7027e-05    -2.66122e-05
                     1.78876e-05    -7.62347e-05     -4.70165e-05     -2.6634e-05         0.810639       0.0307467
5.017                   0.802122      -0.0443523       0.00255588      0.00472542      1.53537e-05     -7.7846e-05
                       0.0025612      0.00473793         0.808788      -0.0238432     -4.75971e-05    -2.56237e-05
                     1.64259e-05     -7.6447e-05     -4.75878e-05    -2.56457e-05          0.81096       0.0305355
5.018                   0.801919      -0.0444004       0.00259456      0.00471352      1.38518e-05    -7.79787e-05
                      0.00260028      0.00472573         0.808733      -0.0239426     -4.81438e-05    -2.46223e-05
                     1.49636e-05     -7.6632e-05     -4.81355e-05    -2.46446e-05         0.811278       0.0303226
5.019                   0.801715      -0.0444477       0.00263334      0.00470122      1.23521e-05    -7.80834e-05
                      0.00263945      0.00471311         0.808677      -0.0240422     -4.86666e-05    -2.36088e-05
                     1.35012e-05    -7.67898e-05     -4.86593e-05    -2.36313e-05         0.811592       0.0301079
5.02                    0.801511      -0.0444942       0.00267222      0.00468851      1.08549e-05    -7.81603e-05
                      0.00267871      0.00470008          0.80862       -0.024142     -4.91654e-05    -2.25839e-05
                     1.20392e-05    -7.69205e-05     -4.91592e-05    -2.26065e-05         0.811903       0.0298916
5.021                   0.801307      -0.0445398       0.00271119       0.0046754       9.3608e-06    -7.82094e-05
                      0.00271804      0.00468663         0.808562      -0.0242419     -4.96398e-05    -2.15481e-05
                     1.05779e-05    -7.70242e-05     -4.96347e-05    -2.15708e-05         0.812212       0.0296736
5.022                   0.801102      -0.0445845       0.00275024      0.00466187      7.87026e-06     -7.8231e-05
                      0.00275743      0.00467276         0.808502      -0.0243421     -5.00898e-05    -2.05021e-05
                     9.11801e-06    -7.71009e-05     -5.00857e-05    -2.05248e-05         0.812517        0.029454
5.023                   0.800896      -0.0446284       0.00278936      0.00464793      6.38363e-06    -7.82252e-05
                      0.00279688      0.00465845         0.808442      -0.0244424      -5.0515e-05    -1.94466e-05
                     7.65984e-06    -7.71509e-05     -5.05119e-05    -1.94693e-05         0.812819       0.0292328
5.024                    0.80069      -0.0446714       0.00282855      0.00463355       4.9015e-06    -7.81923e-05
                      0.00283639      0.00464372          0.80838      -0.0245429     -5.09153e-05    -1.83822e-05
                      6.2038e-06    -7.71741e-05     -5.09133e-05    -1.84048e-05         0.813118         0.02901
5.025                   0.800483      -0.0447136        0.0028678      0.00461876      3.42417e-06    -7.81324e-05
                      0.00287593      0.00462855         0.808318      -0.0246436     -5.12906e-05    -1.73096e-05
                     4.75044e-06    -7.71708e-05     -5.12896e-05    -1.73322e-05         0.813415       0.0287857
5.026                   0.800276      -0.0447549        0.0029071      0.00460353      1.95218e-06    -7.80457e-05
                      0.00291552      0.00461294         0.808254      -0.0247444     -5.16407e-05    -1.62295e-05
                     3.30009e-06    -7.71409e-05     -5.16407e-05    -1.62519e-05         0.813708       0.0285598
5.027                   0.800069      -0.0447953       0.00294644      0.00458786      4.85918e-07    -7.79325e-05
                      0.00295513      0.00459689         0.808189      -0.0248453     -5.19655e-05    -1.51424e-05
                      1.8533e-06    -7.70847e-05     -5.19665e-05    -1.51646e-05         0.813998       0.0283325
5.028                   0.799861      -0.0448349       0.00298582      0.00457176     -9.74202e-07    -7.77929e-05
                      0.00299476      0.00458039         0.808123      -0.0249464     -5.22648e-05    -1.40491e-05
                     4.10468e-07    -7.70022e-05     -5.22668e-05    -1.40711e-05         0.814285       0.0281036
5.029                   0.799652      -0.0448737       0.00302523      0.00455521     -2.42779e-06    -7.76271e-05
                       0.0030344      0.00456345         0.808056      -0.0250476     -5.25386e-05    -1.29503e-05
                    -1.02799e-06    -7.68937e-05     -5.25416e-05     -1.2972e-05         0.814569       0.0278734
5.03                    0.799443      -0.0449116       0.00306465      0.00453822     -3.87436e-06    -7.74354e-05
                      0.00307404      0.00454606         0.807988      -0.0251489     -5.27869e-05    -1.18465e-05
                    -2.46164e-06    -7.67592e-05     -5.27908e-05    -1.18679e-05         0.814851       0.0276417
5.031                   0.799234      -0.0449486       0.00310409      0.00452079     -5.31354e-06     -7.7218e-05
                      0.00311368      0.00452821         0.807919      -0.0252503     -5.30095e-05    -1.07385e-05
                    -3.89002e-06    -7.65988e-05     -5.30143e-05    -1.07595e-05         0.815129       0.0274086
5.032                   0.799024      -0.0449848       0.00314353       0.0045029     -6.74495e-06    -7.69751e-05
                       0.0031533      0.00450991         0.807849      -0.0253518     -5.32065e-05    -9.62683e-06
                    -5.31276e-06    -7.64128e-05     -5.32122e-05    -9.64747e-06         0.815405       0.0271742
5.033                   0.798814      -0.0450202       0.00318296      0.00448456     -8.16818e-06     -7.6707e-05
                       0.0031929      0.00449116         0.807778      -0.0254534     -5.33778e-05    -8.51226e-06
                    -6.72936e-06    -7.62013e-05     -5.33844e-05    -8.53247e-06         0.815678       0.0269384
5.034                   0.798603      -0.0450547       0.00322238      0.00446576     -9.58281e-06    -7.64138e-05
                      0.00323248      0.00447195         0.807705      -0.0255551     -5.35234e-05    -7.39537e-06
                    -8.13949e-06    -7.59645e-05     -5.35309e-05    -7.41512e-06         0.815947       0.0267013
5.035                   0.798392      -0.0450884       0.00326177      0.00444651     -1.09885e-05    -7.60958e-05
                      0.00327201      0.00445228         0.807632      -0.0256568     -5.36434e-05    -6.27683e-06
                    -9.54267e-06    -7.57024e-05     -5.36517e-05    -6.29611e-06         0.816214       0.0264629
5.036                    0.79818      -0.0451212       0.00330114      0.00442679     -1.23849e-05    -7.57532e-05
                      0.00331149      0.00443215         0.807557      -0.0257587     -5.37378e-05     -5.1573e-06
                    -1.09385e-05    -7.54153e-05     -5.37468e-05    -5.17601e-06         0.816478       0.0262232
5.037                   0.797969      -0.0451532       0.00334046      0.00440662     -1.37715e-05    -7.53863e-05
                      0.00335092      0.00441155         0.807481      -0.0258605     -5.38066e-05    -4.03739e-06
                    -1.23266e-05    -7.51035e-05     -5.38164e-05    -4.05555e-06          0.81674       0.0259822
5.038                   0.797756      -0.0451843       0.00337974      0.00438599     -1.51481e-05    -7.49954e-05
                      0.00339029       0.0043905         0.807404      -0.0259625     -5.38499e-05    -2.91774e-06
                    -1.37066e-05    -7.47669e-05     -5.38604e-05     -2.9353e-06         0.816998         0.02574
5.039                   0.797543      -0.0452147       0.00341896      0.00436489     -1.65143e-05    -7.45806e-05
                      0.00342958      0.00436898         0.807326      -0.0260644     -5.38678e-05    -1.79897e-06
                    -1.50779e-05     -7.4406e-05     -5.38791e-05    -1.81592e-06         0.817254       0.0254966
5.04                     0.79733      -0.0452441       0.00345811      0.00434333     -1.78696e-05    -7.41423e-05
                       0.0034688        0.004347         0.807247      -0.0261664     -5.38605e-05    -6.81739e-07
                    -1.64404e-05    -7.40207e-05     -5.38724e-05     -6.9805e-07         0.817506       0.0252519
5.041                   0.797117      -0.0452728        0.0034972      0.00432131     -1.92138e-05    -7.36806e-05
                      0.00350792      0.00432456         0.807167      -0.0262684     -5.38279e-05     4.33364e-07
                    -1.77935e-05    -7.36114e-05     -5.38405e-05     4.17736e-07         0.817757       0.0250061
5.042                   0.796903      -0.0453007       0.00353619      0.00429882     -2.05466e-05    -7.31959e-05
                      0.00354695      0.00430166         0.807086      -0.0263704     -5.37704e-05     1.54573e-06
                    -1.91368e-05    -7.31782e-05     -5.37835e-05     1.53079e-06         0.818004       0.0247592
5.043                   0.796688      -0.0453277        0.0035751      0.00427586     -2.18674e-05    -7.26884e-05
                      0.00358587      0.00427829         0.807003      -0.0264725     -5.36879e-05     2.65475e-06
                      -2.047e-05    -7.27214e-05     -5.37016e-05     2.64053e-06         0.818248       0.0245111
5.044                   0.796474      -0.0453539       0.00361391      0.00425244     -2.31761e-05    -7.21584e-05
                      0.00362468      0.00425446         0.806919      -0.0265745     -5.35807e-05     3.75981e-06
                    -2.17927e-05    -7.22412e-05     -5.35949e-05     3.74632e-06          0.81849       0.0242619
5.045                   0.796259      -0.0453792       0.00365261      0.00422856     -2.44722e-05    -7.16062e-05
                      0.00366336      0.00423017         0.806835      -0.0266765      -5.3449e-05     4.86036e-06
                    -2.31045e-05    -7.17377e-05     -5.34637e-05     4.84761e-06         0.818729       0.0240115
5.046                   0.796043      -0.0454038        0.0036912      0.00420421     -2.57556e-05    -7.10319e-05
                      0.00370191      0.00420542         0.806749      -0.0267785      -5.3293e-05     5.95577e-06
                    -2.44051e-05    -7.12113e-05     -5.33081e-05      5.9438e-06         0.818965       0.0237601
5.047                   0.795827      -0.0454276       0.00372966       0.0041794     -2.70257e-05     -7.0436e-05
                      0.00374033      0.00418021         0.806662      -0.0268805     -5.31128e-05      7.0455e-06
                     -2.5694e-05    -7.06621e-05     -5.31283e-05     7.03431e-06         0.819199       0.0235076
5.048                   0.795611      -0.0454505       0.00376798      0.00415412     -2.82824e-05    -6.98187e-05
                       0.0037786      0.00415454         0.806574      -0.0269824     -5.29087e-05     8.12898e-06
                    -2.69709e-05    -7.00904e-05     -5.29246e-05     8.11859e-06          0.81943       0.0232541
5.049                   0.795394      -0.0454727       0.00380617      0.00412839     -2.95253e-05    -6.91802e-05
                      0.00381671      0.00412842         0.806484      -0.0270843     -5.26809e-05     9.20565e-06
                    -2.82354e-05    -6.94965e-05     -5.26972e-05     9.19604e-06         0.819658       0.0229995
5.05                    0.795177       -0.045494       0.00384421      0.00410219     -3.07541e-05    -6.85208e-05
                      0.00385466      0.00410184         0.806394      -0.0271861     -5.24297e-05     1.02749e-05
                    -2.94871e-05    -6.88805e-05     -5.24463e-05     1.02662e-05         0.819884       0.0227439
5.051                    0.79496      -0.0455145       0.00388208      0.00407553     -3.19684e-05    -6.78409e-05
                      0.00389244      0.00407481         0.806302      -0.0272878     -5.21554e-05     1.13363e-05
                    -3.07258e-05    -6.82427e-05     -5.21722e-05     1.13284e-05         0.820107       0.0224873
5.052                   0.794742      -0.0455343        0.0039198      0.00404842     -3.31681e-05    -6.71408e-05
                      0.00393004      0.00404732          0.80621      -0.0273895     -5.18582e-05     1.23893e-05
                     -3.1951e-05    -6.75834e-05     -5.18752e-05     1.23822e-05         0.820327       0.0222297
5.053                   0.794524      -0.0455532       0.00395733      0.00402085     -3.43527e-05    -6.64206e-05
                      0.00396746      0.00401939         0.806116      -0.0274911     -5.15383e-05     1.34334e-05
                    -3.31625e-05    -6.69029e-05     -5.15555e-05      1.3427e-05         0.820545       0.0219711
5.054                   0.794306      -0.0455714       0.00399469      0.00399282      -3.5522e-05    -6.56808e-05
                      0.00400468      0.00399101         0.806021      -0.0275926     -5.11962e-05      1.4468e-05
                    -3.43597e-05    -6.62014e-05     -5.12135e-05     1.44625e-05          0.82076       0.0217116
5.055                   0.794087      -0.0455888       0.00403185      0.00396434     -3.66758e-05    -6.49216e-05
                      0.00404169      0.00396219         0.805925       -0.027694     -5.08321e-05     1.54926e-05
                    -3.55426e-05    -6.54792e-05     -5.08495e-05     1.54879e-05         0.820972       0.0214511
5.056                   0.793868      -0.0456054       0.00406882      0.00393542     -3.78138e-05    -6.41434e-05
                       0.0040785      0.00393292         0.805827      -0.0277953     -5.04463e-05     1.65068e-05
                    -3.67105e-05    -6.47366e-05     -5.04638e-05      1.6503e-05         0.821182       0.0211898
5.057                   0.793648      -0.0456212       0.00410558      0.00390604     -3.89355e-05    -6.33463e-05
                       0.0041151      0.00390322         0.805729      -0.0278965     -5.00392e-05     1.75101e-05
                    -3.78634e-05    -6.39738e-05     -5.00567e-05     1.75071e-05         0.821389       0.0209275
5.058                   0.793428      -0.0456362       0.00414213      0.00387622     -4.00409e-05    -6.25308e-05
                      0.00415146      0.00387308         0.805629      -0.0279975     -4.96111e-05      1.8502e-05
                    -3.90007e-05    -6.31911e-05     -4.96286e-05     1.84998e-05         0.821594       0.0206643
5.059                   0.793208      -0.0456504       0.00417845      0.00384596     -4.11296e-05    -6.16972e-05
                       0.0041876       0.0038425         0.805529      -0.0280984     -4.91624e-05     1.94821e-05
                    -4.01222e-05    -6.23889e-05     -4.91798e-05     1.94807e-05         0.821796       0.0204002
5.06                    0.792988      -0.0456639       0.00421455      0.00381527     -4.22014e-05    -6.08457e-05
                       0.0042235       0.0038115         0.805427      -0.0281991     -4.86934e-05       2.045e-05
                    -4.12276e-05    -6.15674e-05     -4.87107e-05     2.04493e-05         0.821996       0.0201352
5.061                   0.792767      -0.0456766       0.00425041      0.00378413      -4.3256e-05    -5.99767e-05
                      0.00425915      0.00378007         0.805324      -0.0282997     -4.82045e-05     2.14051e-05
                    -4.23166e-05     -6.0727e-05     -4.82217e-05     2.14053e-05         0.822193       0.0198694
5.062                   0.792545      -0.0456886       0.00428603      0.00375257     -4.42932e-05    -5.90905e-05
                      0.00429455      0.00374822          0.80522      -0.0284002      -4.7696e-05     2.23471e-05
                    -4.33889e-05    -5.98679e-05     -4.77131e-05      2.2348e-05         0.822387       0.0196027
5.063                   0.792324      -0.0456998       0.00432139      0.00372057     -4.53126e-05    -5.81874e-05
                      0.00432969      0.00371596         0.805115      -0.0285004     -4.71685e-05     2.32756e-05
                    -4.44441e-05    -5.89904e-05     -4.71854e-05     2.32773e-05         0.822579       0.0193352
5.064                   0.792102      -0.0457102        0.0043565      0.00368815     -4.63142e-05    -5.72678e-05
                      0.00436457      0.00368327         0.805008      -0.0286005     -4.66222e-05     2.41902e-05
                    -4.54819e-05    -5.80949e-05     -4.66388e-05     2.41926e-05         0.822769       0.0190669
5.065                   0.791879      -0.0457199       0.00439134      0.00365531     -4.72975e-05     -5.6332e-05
                      0.00439917      0.00365018           0.8049      -0.0287004     -4.60575e-05     2.50904e-05
                    -4.65021e-05    -5.71818e-05      -4.6074e-05     2.50936e-05         0.822955       0.0187978
5.066                   0.791657      -0.0457288       0.00442591      0.00362206     -4.82625e-05    -5.53803e-05
                      0.00443349      0.00361668         0.804792         -0.0288      -4.5475e-05     2.59761e-05
                    -4.75044e-05    -5.62512e-05     -4.54911e-05     2.59799e-05          0.82314       0.0185279
5.067                   0.791434       -0.045737       0.00446021      0.00358839     -4.92088e-05     -5.4413e-05
                      0.00446753      0.00358278         0.804682      -0.0288995     -4.48749e-05     2.68466e-05
                    -4.84885e-05    -5.53035e-05     -4.48907e-05     2.68512e-05         0.823322       0.0182572
5.068                    0.79121      -0.0457444       0.00449421      0.00355431     -5.01363e-05    -5.34305e-05
                      0.00450127      0.00354848         0.804571      -0.0289987     -4.42577e-05     2.77019e-05
                    -4.94541e-05    -5.43392e-05     -4.42732e-05     2.77071e-05         0.823501       0.0179858
5.069                   0.790986       -0.045751       0.00452793      0.00351983     -5.10447e-05    -5.24331e-05
                      0.00453472      0.00351379         0.804458      -0.0290977     -4.36239e-05     2.85414e-05
                    -5.04009e-05    -5.33584e-05     -4.36391e-05     2.85473e-05         0.823678       0.0177136
5.07                    0.790762      -0.0457569       0.00456134      0.00348495     -5.19339e-05    -5.14212e-05
                      0.00456786      0.00347871         0.804345      -0.0291965     -4.29739e-05     2.93649e-05
                    -5.13287e-05    -5.23617e-05     -4.29887e-05     2.93714e-05         0.823853       0.0174406
5.071                   0.790538      -0.0457621       0.00459446      0.00344967     -5.28035e-05    -5.03951e-05
                       0.0046007      0.00344324         0.804231       -0.029295     -4.23082e-05      3.0172e-05
                    -5.22372e-05    -5.13493e-05     -4.23225e-05     3.01792e-05         0.824025       0.0171669
5.072                   0.790313      -0.0457665       0.00462726        0.003414     -5.36535e-05    -4.93552e-05
                      0.00463322       0.0034074         0.804115      -0.0293932      -4.1627e-05     3.09626e-05
                    -5.31261e-05    -5.03215e-05     -4.16409e-05     3.09703e-05         0.824195       0.0168925
5.073                   0.790088      -0.0457702       0.00465974      0.00337795     -5.44835e-05    -4.83017e-05
                      0.00466542      0.00337118         0.803998      -0.0294912     -4.09311e-05     3.17363e-05
                    -5.39952e-05    -4.92787e-05     -4.09445e-05     3.17446e-05         0.824362       0.0166174
5.074                   0.789862      -0.0457732        0.0046919      0.00334151     -5.52935e-05    -4.72351e-05
                      0.00469729      0.00333459          0.80388      -0.0295889     -4.02207e-05     3.24928e-05
                    -5.48443e-05    -4.82214e-05     -4.02336e-05     3.25016e-05         0.824527       0.0163415
5.075                   0.789636      -0.0457754       0.00472374       0.0033047     -5.60832e-05    -4.61558e-05
                      0.00472883      0.00329764         0.803761      -0.0296863     -3.94963e-05     3.32318e-05
                    -5.56731e-05    -4.71497e-05     -3.95088e-05     3.32412e-05         0.824689        0.016065
5.076                    0.78941      -0.0457769       0.00475524      0.00326752     -5.68525e-05    -4.50639e-05
                      0.00476004      0.00326033          0.80364      -0.0297833     -3.87585e-05     3.39533e-05
                    -5.64814e-05    -4.60642e-05     -3.87704e-05     3.39631e-05         0.824849       0.0157878
5.077                   0.789183      -0.0457776        0.0047864      0.00322998     -5.76011e-05      -4.396e-05
                       0.0047909      0.00322266         0.803519      -0.0298801     -3.80077e-05     3.46568e-05
                     -5.7269e-05    -4.49653e-05      -3.8019e-05     3.46671e-05         0.825006         0.01551
5.078                   0.788956      -0.0457777       0.00481721      0.00319207     -5.83289e-05    -4.28444e-05
                      0.00482142      0.00318465         0.803396      -0.0299766     -3.72442e-05     3.53422e-05
                    -5.80355e-05    -4.38531e-05      -3.7255e-05     3.53529e-05         0.825162       0.0152315
5.079                   0.788728      -0.0457769       0.00484768      0.00315381     -5.90357e-05    -4.17175e-05
                      0.00485158      0.00314629         0.803272      -0.0300727     -3.64687e-05     3.60093e-05
                    -5.87809e-05    -4.27283e-05      -3.6479e-05     3.60204e-05         0.825314       0.0149523
5.08                      0.7885      -0.0457755       0.00487779       0.0031152     -5.97214e-05    -4.05795e-05
                      0.00488139       0.0031076         0.803147      -0.0301685     -3.56816e-05      3.6658e-05
                    -5.95049e-05     -4.1591e-05     -3.56913e-05     3.66694e-05         0.825465       0.0146725
5.081                   0.788272      -0.0457733       0.00490754      0.00307625     -6.03858e-05    -3.94309e-05
                      0.00491084      0.00306857         0.803021      -0.0302639     -3.48834e-05     3.72879e-05
                    -6.02073e-05    -4.04418e-05     -3.48924e-05     3.72997e-05         0.825613        0.014392
5.082                   0.788043      -0.0457705       0.00493693      0.00303696     -6.10287e-05    -3.82721e-05
                      0.00493993      0.00302922         0.802894      -0.0303589     -3.40745e-05      3.7899e-05
                    -6.08879e-05     -3.9281e-05     -3.40829e-05     3.79111e-05         0.825759        0.014111
5.083                   0.787814      -0.0457668       0.00496595      0.00299734       -6.165e-05    -3.71034e-05
                      0.00496864      0.00298955         0.802766      -0.0304536     -3.32554e-05     3.84912e-05
                    -6.15466e-05    -3.81091e-05     -3.32632e-05     3.85035e-05         0.825902       0.0138293
5.084                   0.787585      -0.0457625        0.0049946      0.00295738     -6.22496e-05    -3.59252e-05
                      0.00499699      0.00294956         0.802636      -0.0305479     -3.24266e-05     3.90642e-05
                    -6.21831e-05    -3.69263e-05     -3.24338e-05     3.90768e-05         0.826043       0.0135471
5.085                   0.787355      -0.0457574       0.00502287      0.00291712     -6.28274e-05    -3.47378e-05