! TOUCHSTONE file generated by CST MICROWAVE STUDIO
! Date and time: Mon Sep 28 14:12:46 2020
! Project name: Katja Lung Lower Right.cst
! Header version: 2018
! Port assignment regex: !\s*Touchstone port\s*([0-9]+)\s*=\s*(CST MWS port|CST DS port)\s*([0-9]+|Zmin|Zmax)\s*\(\"(.*)\"\)(\s*mode\s*([0-9]+))?.*
! Touchstone port assignment:
! Touchstone port 1 = CST MWS port 1 ("")
! Touchstone port 2 = CST MWS port 2 ("")
! Touchstone port 3 = CST MWS port 3 ("")
# GHz S RI R 50
5                        0.80639      -0.0581009        0.0172962      -0.0111007      0.000235622    -0.000233796
                       0.0172982      -0.0110794         0.789897      -0.0598884       0.00102567    -5.46261e-06
                     0.000231258    -0.000234473       0.00105469    -6.69108e-07         0.828099       0.0396427
5.001                   0.806145      -0.0582629        0.0172868      -0.0112477      0.000228198    -0.000236769
                       0.0172899      -0.0112268         0.789635      -0.0599369        0.0010235    -2.15861e-05
                     0.000223847    -0.000237195       0.00105245    -1.83773e-05         0.828616       0.0391187
5.002                   0.805899      -0.0584248        0.0172765      -0.0113961      0.000220745    -0.000239502
                       0.0172807      -0.0113756         0.789371      -0.0599851       0.00102106     -3.7662e-05
                     0.000216421    -0.000239681       0.00104986    -3.60161e-05         0.829125       0.0385914
5.003                    0.80565      -0.0585866        0.0172652       -0.011546      0.000213271    -0.000241995
                       0.0172705      -0.0115258         0.789106      -0.0600329       0.00101835    -5.36847e-05
                     0.000208988    -0.000241932       0.00104692     -5.3576e-05         0.829626        0.038061
5.004                   0.805398      -0.0587482         0.017253      -0.0116972      0.000205786     -0.00024425
                       0.0172593      -0.0116775         0.788839      -0.0600804       0.00101537    -6.96485e-05
                     0.000201556    -0.000243948       0.00104363    -7.10476e-05         0.830119       0.0375276
5.005                   0.805145      -0.0589098        0.0172399      -0.0118498      0.000198298    -0.000246266
                       0.0172472      -0.0118307          0.78857      -0.0601276       0.00101212    -8.55476e-05
                     0.000194134    -0.000245732       0.00103999    -8.84215e-05         0.830604       0.0369912
5.006                   0.804889      -0.0590711        0.0172257      -0.0120039      0.000190815    -0.000248044
                       0.0172339      -0.0119853           0.7883      -0.0601744        0.0010086    -0.000101376
                     0.000186729    -0.000247285       0.00103602    -0.000105688         0.831081       0.0364519
5.007                   0.804631      -0.0592324        0.0172104      -0.0121594      0.000183346    -0.000249588
                       0.0172196      -0.0121414         0.788028      -0.0602209       0.00100481    -0.000117128
                     0.000179348     -0.00024861        0.0010317    -0.000122839          0.83155       0.0359098
5.008                   0.804371      -0.0593935        0.0171941      -0.0123162      0.000175898    -0.000250898
                       0.0172042      -0.0122989         0.787754      -0.0602669       0.00100074    -0.000132798
                     0.000172001    -0.000249708       0.00102704    -0.000139864         0.832012       0.0353651
5.009                   0.804108      -0.0595544        0.0171767      -0.0124745       0.00016848    -0.000251977
                       0.0171876      -0.0124579         0.787478      -0.0603126       0.00099641    -0.000148379
                     0.000164694    -0.000250583       0.00102205    -0.000156754         0.832465       0.0348178
5.01                    0.803843      -0.0597151        0.0171581      -0.0126343        0.0001611    -0.000252827
                       0.0171698      -0.0126184         0.787201      -0.0603578      0.000991808    -0.000163865
                     0.000157435    -0.000251238       0.00101673    -0.000173501          0.83291        0.034268
5.011                   0.803575      -0.0598756        0.0171383      -0.0127954      0.000153765    -0.000253451
                       0.0171507      -0.0127803         0.786921      -0.0604025      0.000986936    -0.000179249
                     0.000150231    -0.000251676       0.00101109    -0.000190095         0.833348       0.0337157
5.012                   0.803305      -0.0600359        0.0171173       -0.012958      0.000146484    -0.000253853
                       0.0171304      -0.0129437          0.78664      -0.0604468      0.000981798    -0.000194526
                     0.000143089    -0.000251901       0.00100512    -0.000206528         0.833778       0.0331611
5.013                   0.803033       -0.060196        0.0170951       -0.013122      0.000139263    -0.000254035
                       0.0171089      -0.0131086         0.786358      -0.0604906      0.000976392    -0.000209689
                     0.000136015    -0.000251916      0.000998832    -0.000222791           0.8342       0.0326043
5.014                   0.802758      -0.0603558        0.0170715      -0.0132875      0.000132111    -0.000254002
                       0.0170859      -0.0132749         0.786073      -0.0605339      0.000970723    -0.000224731
                     0.000129018    -0.000251725      0.000992234    -0.000238876         0.834615       0.0320452
5.015                    0.80248      -0.0605154        0.0170467      -0.0134544      0.000125033    -0.000253757
                       0.0170616      -0.0134427         0.785787      -0.0605766       0.00096479    -0.000239647
                     0.000122102    -0.000251333      0.000985329    -0.000254775         0.835022       0.0314841
5.016                   0.802201      -0.0606747        0.0170204      -0.0136227      0.000118037    -0.000253305
                       0.0170359      -0.0136119         0.785499      -0.0606189      0.000958597    -0.000254429
                     0.000115275    -0.000250745      0.000978123    -0.000270479         0.835422        0.030921
5.017                   0.801918      -0.0608338        0.0169928      -0.0137924      0.000111131     -0.00025265
                       0.0170087      -0.0137825         0.785208      -0.0606605      0.000952146    -0.000269071
                     0.000108542    -0.000249964      0.000970621     -0.00028598         0.835814       0.0303559
5.018                   0.801633      -0.0609925        0.0169637      -0.0139636      0.000104319    -0.000251797
                         0.01698      -0.0139547         0.784917      -0.0607016      0.000945438    -0.000283566
                     0.000101909    -0.000248997      0.000962831    -0.000301271         0.836198        0.029789
5.019                   0.801345      -0.0611508        0.0169332      -0.0141362      9.76083e-05    -0.000250751
                       0.0169498      -0.0141282         0.784623      -0.0607421      0.000938478    -0.000297909
                     9.53821e-05    -0.000247847      0.000954757    -0.000316345         0.836575       0.0292202
5.02                    0.801055      -0.0613089        0.0169011      -0.0143102      9.10052e-05    -0.000249517
                        0.016918      -0.0143032         0.784327       -0.060782      0.000931267    -0.000312092
                     8.89662e-05    -0.000246521      0.000946407    -0.000331194         0.836945       0.0286498
5.021                   0.800762      -0.0614665        0.0168675      -0.0144857      8.45151e-05      -0.0002481
                       0.0168846      -0.0144796          0.78403      -0.0608212       0.00092381     -0.00032611
                     8.26664e-05    -0.000245024      0.000937788    -0.000345812         0.837307       0.0280777
5.022                   0.800467      -0.0616238        0.0168322      -0.0146626      7.81437e-05    -0.000246507
                       0.0168495      -0.0146575          0.78373      -0.0608598       0.00091611    -0.000339956
                     7.64876e-05    -0.000243361      0.000928908    -0.000360191         0.837662        0.027504
5.023                   0.800168      -0.0617807        0.0167954      -0.0148409       7.1896e-05    -0.000244742
                       0.0168128      -0.0148368         0.783429      -0.0608977      0.000908171    -0.000353624
                     7.04342e-05    -0.000241539      0.000919772    -0.000374325         0.838009       0.0269288
5.024                   0.799867      -0.0619371        0.0167568      -0.0150206      6.57771e-05    -0.000242812
                       0.0167743      -0.0150174         0.783126       -0.060935      0.000899996    -0.000367108
                     6.45106e-05    -0.000239562       0.00091039    -0.000388208          0.83835       0.0263522
5.025                   0.799563      -0.0620931        0.0167166      -0.0152017      5.97914e-05    -0.000240722
                       0.0167341      -0.0151995          0.78282      -0.0609715      0.000891591    -0.000380402
                     5.87209e-05    -0.000237438      0.000900769    -0.000401834         0.838683       0.0257742
5.026                   0.799257      -0.0622486        0.0166746      -0.0153842      5.39435e-05     -0.00023848
                        0.016692       -0.015383         0.782513      -0.0610073      0.000882959      -0.0003935
                     5.30688e-05    -0.000235172      0.000890917    -0.000415197         0.839009       0.0251948
5.027                   0.798947      -0.0624036        0.0166308      -0.0155681      4.82376e-05    -0.000236091
                       0.0166481      -0.0155679         0.782204      -0.0610423      0.000874106    -0.000406396
                      4.7558e-05     -0.00023277      0.000880842    -0.000428293         0.839328       0.0246143
5.028                   0.798635       -0.062558        0.0165851      -0.0157534      4.26775e-05    -0.000233562
                       0.0166023      -0.0157541         0.781893      -0.0610766      0.000865036    -0.000419084
                     4.21912e-05    -0.000230239      0.000870552    -0.000441115          0.83964       0.0240325
5.029                    0.79832      -0.0627119        0.0165375      -0.0159401      3.72666e-05    -0.000230899
                       0.0165546      -0.0159417          0.78158      -0.0611101      0.000855755     -0.00043156
                      3.6972e-05    -0.000227586      0.000860057     -0.00045366         0.839944       0.0234496
5.03                    0.798001      -0.0628651         0.016488      -0.0161282      3.20082e-05    -0.000228109
                       0.0165049      -0.0161307         0.781265      -0.0611427      0.000846268    -0.000443816
                     3.19027e-05    -0.000224815      0.000849364    -0.000465923         0.840242       0.0228657
5.031                    0.79768      -0.0630178        0.0164366      -0.0163176      2.69053e-05    -0.000225198
                       0.0164531       -0.016321         0.780948      -0.0611746      0.000836581     -0.00045585
                     2.69855e-05    -0.000221935      0.000838484      -0.0004779         0.840533       0.0222807
5.032                   0.797356      -0.0631697        0.0163831      -0.0165084      2.19605e-05    -0.000222174
                       0.0163993      -0.0165127         0.780629      -0.0612056        0.0008267    -0.000467655
                      2.2223e-05    -0.000218951      0.000827424    -0.000489586         0.840817       0.0216948
5.033                   0.797029       -0.063321        0.0163275      -0.0167005      1.71762e-05    -0.000219044
                       0.0163434      -0.0167056         0.780308      -0.0612357       0.00081663    -0.000479226
                      1.7617e-05     -0.00021587      0.000816194     -0.00050098         0.841094        0.021108
5.034                   0.796699      -0.0634715        0.0162699       -0.016894      1.25545e-05    -0.000215813
                       0.0162853      -0.0168999         0.779984       -0.061265      0.000806379     -0.00049056
                     1.31687e-05    -0.000212698      0.000804802    -0.000512077         0.841365       0.0205203
5.035                   0.796366      -0.0636213          0.01621      -0.0170887      8.09716e-06    -0.000212489
                        0.016225      -0.0170954         0.779659      -0.0612933      0.000795952    -0.000501651
                     8.87958e-06    -0.000209443      0.000793259    -0.000522875         0.841628       0.0199319
5.036                   0.796029      -0.0637703         0.016148      -0.0172848      3.80577e-06    -0.000209079
                       0.0161625      -0.0172923         0.779332      -0.0613207      0.000785357    -0.000512495
                     4.75095e-06    -0.000206109      0.000781574    -0.000533371         0.841885       0.0193427
5.037                    0.79569      -0.0639184        0.0160837      -0.0174822     -3.18574e-07     -0.00020559
                       0.0160977      -0.0174904         0.779002      -0.0613471      0.000774599    -0.000523089
                     7.83286e-07    -0.000202705      0.000769755    -0.000543563         0.842135       0.0187529
5.038                   0.795347      -0.0640656        0.0160171      -0.0176808     -4.27509e-06    -0.000202028
                       0.0160306      -0.0176897         0.778671      -0.0613726      0.000763687    -0.000533428
                    -3.02284e-06    -0.000199237      0.000757812     -0.00055345         0.842378       0.0181624
5.039                   0.795001      -0.0642119        0.0159482      -0.0178807     -8.06283e-06      -0.0001984
                        0.015961      -0.0178902         0.778337       -0.061397      0.000752627    -0.000543509
                    -6.66714e-06     -0.00019571      0.000745756     -0.00056303         0.842615       0.0175713
5.04                    0.794652      -0.0643572        0.0158768      -0.0180818     -1.16817e-05    -0.000194714
                       0.0158891       -0.018092         0.778001      -0.0614204      0.000741426     -0.00055333
                    -1.01495e-05    -0.000192131      0.000733594    -0.000572301         0.842845       0.0169797
5.041                     0.7943      -0.0645015        0.0158031      -0.0182842     -1.51315e-05    -0.000190975
                       0.0158146      -0.0182949         0.777663      -0.0614428      0.000730092    -0.000562885
                    -1.34704e-05    -0.000188506      0.000721337    -0.000581264         0.843069       0.0163877
5.042                   0.793944      -0.0646448        0.0157268      -0.0184877     -1.84125e-05    -0.000187191
                       0.0157377       -0.018499         0.777323      -0.0614641      0.000718633    -0.000572174
                      -1.663e-05    -0.000184842      0.000708995    -0.000589918         0.843286       0.0157951
5.043                   0.793585      -0.0647869         0.015648      -0.0186925      -2.1525e-05    -0.000183369
                       0.0156582      -0.0187042          0.77698      -0.0614843      0.000707056    -0.000581194
                    -1.96294e-05    -0.000181145      0.000696576    -0.000598263         0.843497       0.0152022
5.044                   0.793223      -0.0649279        0.0155665      -0.0188984     -2.44698e-05    -0.000179513
                        0.015576      -0.0189106         0.776636      -0.0615033      0.000695369    -0.000589942
                    -2.24693e-05     -0.00017742      0.000684089    -0.000606299         0.843702        0.014609
5.045                   0.792858      -0.0650677        0.0154825      -0.0191054      -2.7248e-05    -0.000175632
                       0.0154912       -0.019118         0.776289      -0.0615213       0.00068358    -0.000598416
                    -2.51507e-05    -0.000173674      0.000671545    -0.000614026           0.8439       0.0140154
5.046                   0.792489      -0.0652062        0.0153957      -0.0193135     -2.98609e-05    -0.000171731
                       0.0154037      -0.0193265          0.77594       -0.061538      0.000671696    -0.000606615
                    -2.76754e-05    -0.000169912      0.000658953    -0.000621446         0.844091       0.0134216
5.047                   0.792116      -0.0653434        0.0153063      -0.0195227     -3.23094e-05    -0.000167817
                       0.0153135       -0.019536         0.775588      -0.0615535      0.000659726    -0.000614537
                    -3.00447e-05     -0.00016614      0.000646321     -0.00062856         0.844277       0.0128276
5.048                    0.79174      -0.0654792         0.015214      -0.0197329     -3.45958e-05    -0.000163894
                       0.0152204      -0.0197465         0.775235      -0.0615678      0.000647677    -0.000622181
                    -3.22605e-05    -0.000162364      0.000633659    -0.000635369         0.844456       0.0122334
5.049                   0.791361      -0.0656136        0.0151188      -0.0199442     -3.67219e-05    -0.000159971
                       0.0151245      -0.0199581         0.774879      -0.0615809      0.000635559    -0.000629548
                    -3.43249e-05    -0.000158588      0.000620976    -0.000641876         0.844629        0.011639
5.05                    0.790978      -0.0657466        0.0150208      -0.0201565     -3.86896e-05    -0.000156051
                       0.0150257      -0.0201705          0.77452      -0.0615926      0.000623378    -0.000636634
                      -3.624e-05    -0.000154819       0.00060828    -0.000648082         0.844796       0.0110446
5.051                   0.790592       -0.065878        0.0149198      -0.0203697     -4.05013e-05    -0.000152142
                       0.0149239      -0.0203839          0.77416      -0.0616031      0.000611143    -0.000643442
                     -3.8008e-05    -0.000151061      0.000595581     -0.00065399         0.844956       0.0104501
5.052                   0.790202      -0.0660078        0.0148159      -0.0205838     -4.21598e-05    -0.000148247
                       0.0148191      -0.0205981         0.773797      -0.0616121      0.000598863     -0.00064997
                    -3.96318e-05    -0.000147319      0.000582887    -0.000659604         0.845111      0.00985557
5.053                   0.789808       -0.066136        0.0147089      -0.0207989     -4.36675e-05    -0.000144373
                       0.0147113      -0.0208133         0.773431      -0.0616198      0.000586545     -0.00065622
                    -4.11137e-05    -0.000143597      0.000570206    -0.000664925         0.845259      0.00926106
5.054                   0.789411      -0.0662624        0.0145987      -0.0210148     -4.50275e-05    -0.000140524
                       0.0146004      -0.0210292         0.773064      -0.0616261      0.000574196    -0.000662192
                    -4.24568e-05    -0.000139901      0.000557548    -0.000669958         0.845402       0.0086666
5.055                   0.789011      -0.0663871        0.0144855      -0.0212315     -4.62428e-05    -0.000136706
                       0.0144863      -0.0212459         0.772693      -0.0616309      0.000561827    -0.000667886
                     -4.3664e-05    -0.000136235      0.000544919    -0.000674707         0.845538      0.00807222
5.056                   0.788607      -0.0665099         0.014369       -0.021449     -4.73167e-05    -0.000132924
                       0.0143691      -0.0214633         0.772321      -0.0616343      0.000549444    -0.000673305
                    -4.47385e-05    -0.000132604      0.000532328    -0.000679174         0.845669      0.00747796
5.057                   0.788199      -0.0666308        0.0142493      -0.0216672     -4.82527e-05    -0.000129181
                       0.0142486      -0.0216814         0.771946      -0.0616361      0.000537055    -0.000678449
                    -4.56835e-05     -0.00012901      0.000519783    -0.000683366         0.845793      0.00688385
5.058                   0.787787      -0.0667497        0.0141263      -0.0218861     -4.90542e-05    -0.000125481
                       0.0141248      -0.0219002         0.771568      -0.0616364      0.000524669    -0.000683321
                    -4.65024e-05    -0.000125458      0.000507291    -0.000687285         0.845912      0.00628993
5.059                   0.787372      -0.0668666        0.0139999      -0.0221057     -4.97249e-05    -0.000121831
                       0.0139977      -0.0221196         0.771188      -0.0616351      0.000512292    -0.000687924
                    -4.71987e-05    -0.000121952       0.00049486    -0.000690936         0.846025      0.00569622
5.06                    0.786953      -0.0669814        0.0138701      -0.0223259     -5.02686e-05    -0.000118232
                       0.0138672      -0.0223396         0.770805      -0.0616322      0.000499934    -0.000692258
                    -4.77758e-05    -0.000118495      0.000482496    -0.000694326         0.846132      0.00510275
5.061                   0.786531       -0.067094        0.0137369      -0.0225467     -5.06891e-05    -0.000114689
                       0.0137332      -0.0225601          0.77042      -0.0616276      0.000487601    -0.000696327
                    -4.82376e-05    -0.000115091      0.000470207    -0.000697459         0.846233      0.00450957
5.062                   0.786104      -0.0672043        0.0136001       -0.022768     -5.09907e-05    -0.000111205
                       0.0135958       -0.022781         0.770033      -0.0616213      0.000475301    -0.000700134
                    -4.85877e-05    -0.000111742      0.000457999     -0.00070034         0.846329      0.00391668
5.063                   0.785675      -0.0673123        0.0134599      -0.0229897     -5.11771e-05    -0.000107784
                       0.0134548      -0.0230025         0.769642      -0.0616133      0.000463041    -0.000703683
                    -4.88299e-05    -0.000108452      0.000445878    -0.000702975         0.846419      0.00332414
5.064                   0.785241      -0.0674179         0.013316      -0.0232118     -5.12526e-05    -0.000104429
                       0.0133103      -0.0232242         0.769249      -0.0616035      0.000450828    -0.000706977
                     -4.8968e-05    -0.000105223      0.000433852    -0.000705371         0.846503      0.00273195
5.065                   0.784804       -0.067521        0.0131684      -0.0234343     -5.12217e-05    -0.000101142
                       0.0131621      -0.0234463         0.768854      -0.0615918      0.000438671    -0.000710018
                    -4.90062e-05    -0.000102057      0.000421925    -0.000707532         0.846582      0.00214016
5.066                   0.784362      -0.0676216        0.0130172      -0.0236571     -5.10882e-05    -9.79257e-05
                       0.0130103      -0.0236687         0.768456      -0.0615783      0.000426574    -0.000712814
                    -4.89481e-05    -9.89578e-05      0.000410103    -0.000709466         0.846655      0.00154878
5.067                   0.783918      -0.0677195        0.0128622      -0.0238802     -5.08568e-05    -9.47833e-05
                       0.0128547      -0.0238913         0.768055      -0.0615628      0.000414546    -0.000715365
                    -4.87979e-05    -9.59262e-05      0.000398391    -0.000711178         0.846723      0.00095784
5.068                   0.783469      -0.0678147        0.0127034      -0.0241034     -5.05318e-05    -9.17165e-05
                       0.0126954       -0.024114         0.767651      -0.0615454      0.000402592    -0.000717679
                    -4.85595e-05    -9.29646e-05      0.000386796    -0.000712676         0.846785     0.000367368
5.069                   0.783017      -0.0679072        0.0125408      -0.0243268     -5.01175e-05    -8.87274e-05
                       0.0125323      -0.0243369         0.767245       -0.061526      0.000390719    -0.000719759
                    -4.82369e-05    -9.00747e-05       0.00037532    -0.000713965         0.846841    -0.000222612
5.07                    0.782561      -0.0679968        0.0123744      -0.0245502     -4.96183e-05    -8.58177e-05
                       0.0123653      -0.0245598         0.766836      -0.0615045      0.000378933    -0.000721611
                    -4.78342e-05    -8.72579e-05      0.000363969    -0.000715054         0.846892    -0.000812078
5.071                   0.782101      -0.0680834        0.0122039      -0.0247737     -4.90387e-05     -8.2989e-05
                       0.0121944      -0.0247826         0.766425      -0.0614809       0.00036724    -0.000723239
                    -4.73553e-05    -8.45156e-05      0.000352748    -0.000715948         0.846938       -0.001401
5.072                   0.781637       -0.068167        0.0120295       -0.024997      -4.8383e-05    -8.02424e-05
                       0.0120196      -0.0250054          0.76601      -0.0614552      0.000355646    -0.000724649
                    -4.68043e-05    -8.18489e-05      0.000341659    -0.000716655         0.846978     -0.00198937
5.073                    0.78117      -0.0682475        0.0118511      -0.0252203     -4.76555e-05    -7.75792e-05
                       0.0118408      -0.0252281         0.765593      -0.0614272      0.000344156    -0.000725848
                    -4.61849e-05    -7.92589e-05      0.000330707    -0.000717182         0.847013     -0.00257715
5.074                   0.780699      -0.0683247        0.0116686      -0.0254433     -4.68608e-05    -7.50002e-05
                        0.011658      -0.0254505         0.765173       -0.061397      0.000332775     -0.00072684
                    -4.55014e-05    -7.67461e-05      0.000319894    -0.000717536         0.847042     -0.00316432
5.075                   0.780225      -0.0683988        0.0114821      -0.0256661      -4.6003e-05    -7.25061e-05
                       0.0114711      -0.0256726          0.76475      -0.0613644      0.000321508    -0.000727632
                    -4.47575e-05    -7.43112e-05      0.000309225    -0.000717724         0.847066     -0.00375088
5.076                   0.779746      -0.0684694        0.0112914      -0.0258885     -4.50864e-05    -7.00975e-05
                       0.0112801      -0.0258944         0.764325      -0.0613295       0.00031036    -0.000728229
                     -4.3957e-05    -7.19546e-05        0.0002987    -0.000717755         0.847085     -0.00433679
5.077                   0.779264      -0.0685366        0.0110965      -0.0261106     -4.41151e-05    -6.77746e-05
                        0.011085      -0.0261158         0.763896      -0.0612921      0.000299335    -0.000728639
                    -4.31037e-05    -6.96767e-05      0.000288324    -0.000717635         0.847099     -0.00492204
5.078                   0.778779      -0.0686003        0.0108974      -0.0263321     -4.30935e-05    -6.55375e-05
                       0.0108857      -0.0263367         0.763465      -0.0612522      0.000288438    -0.000728868
                    -4.22014e-05    -6.74774e-05      0.000278096    -0.000717371         0.847108      -0.0055066
5.079                   0.778289      -0.0686603         0.010694      -0.0265531     -4.20256e-05    -6.33862e-05
                       0.0106821       -0.026557          0.76303      -0.0612097      0.000277672    -0.000728921
                    -4.12536e-05    -6.53566e-05      0.000268021    -0.000716972         0.847111     -0.00609045
5.08                    0.777796      -0.0687167        0.0104864      -0.0267734     -4.09152e-05    -6.13204e-05
                       0.0104744      -0.0267766         0.762593      -0.0611647       0.00026704    -0.000728808
                     -4.0264e-05    -6.33142e-05      0.000258099    -0.000716444         0.847109     -0.00667359
5.081                     0.7773      -0.0687692        0.0102744       -0.026993     -3.97663e-05    -5.93397e-05
                       0.0102623      -0.0269955         0.762153      -0.0611169      0.000256547    -0.000728532
                     -3.9236e-05    -6.13497e-05       0.00024833    -0.000715796         0.847102     -0.00725598
5.082                     0.7768      -0.0688179        0.0100581      -0.0272118     -3.85827e-05    -5.74435e-05
                       0.0100459      -0.0272136          0.76171      -0.0610663      0.000246195    -0.000728103
                    -3.81729e-05    -5.94626e-05      0.000238716    -0.000715034          0.84709     -0.00783762
5.083                   0.776296      -0.0688626       0.00983736      -0.0274297     -3.73681e-05    -5.56311e-05
                      0.00982517      -0.0274309         0.761264       -0.061013      0.000235986    -0.000727527
                    -3.70782e-05    -5.76522e-05      0.000229258    -0.000714166         0.847073     -0.00841848
5.084                   0.775789      -0.0689032       0.00961223      -0.0276466     -3.61261e-05    -5.39015e-05
                      0.00960006      -0.0276471         0.760815      -0.0609568      0.000225924     -0.00072681
                     -3.5955e-05    -5.59178e-05      0.000219955      -0.0007132          0.84705     -0.00899856
5.085                   0.775278      -0.0689397       0.00938265      -0.0278624     -3.48602e-05    -5.22536e-05