! TOUCHSTONE file generated by CST MICROWAVE STUDIO
! Date and time: Sat Sep 26 14:46:00 2020
! Project name: Child Lung Lower Right.cst
! Header version: 2018
! Port assignment regex: !\s*Touchstone port\s*([0-9]+)\s*=\s*(CST MWS port|CST DS port)\s*([0-9]+|Zmin|Zmax)\s*\(\"(.*)\"\)(\s*mode\s*([0-9]+))?.*
! Touchstone port assignment:
! Touchstone port 1 = CST MWS port 1 ("")
! Touchstone port 2 = CST MWS port 2 ("")
! Touchstone port 3 = CST MWS port 3 ("")
# GHz S RI R 50
5                       0.744145      -0.0191089       0.00900651        0.019426     -2.65134e-05     -0.00371728
                      0.00900649        0.019426         0.742274       -0.027208      -0.00135113     -0.00300108
                    -3.38506e-05     -0.00370598      -0.00134799     -0.00300273         0.718177        -0.12288
5.001                   0.744199      -0.0186128       0.00924759       0.0192685     -8.12642e-05     -0.00372856
                      0.00924756       0.0192684         0.742221      -0.0266816      -0.00139411     -0.00297892
                     -8.7871e-05     -0.00371693      -0.00139109     -0.00298074         0.716958       -0.122368
5.002                   0.744257      -0.0181187       0.00948533        0.019108     -0.000136658     -0.00373905
                       0.0094853       0.0191079         0.742174      -0.0261556      -0.00143664     -0.00295619
                     -0.00014252     -0.00372713      -0.00143376     -0.00295817         0.715739       -0.121841
5.003                    0.74432      -0.0176266       0.00971972       0.0189445     -0.000192687     -0.00374872
                      0.00971969       0.0189445         0.742133        -0.02563      -0.00147872     -0.00293288
                    -0.000197793     -0.00373656      -0.00147598     -0.00293503         0.714519       -0.121299
5.004                   0.744388      -0.0171366       0.00995072       0.0187783     -0.000249335     -0.00375753
                      0.00995069       0.0187782         0.742097      -0.0251049      -0.00152034     -0.00290903
                    -0.000253681     -0.00374518      -0.00151775     -0.00291132         0.713299       -0.120742
5.005                   0.744461      -0.0166486        0.0101783       0.0186093     -0.000306594     -0.00376545
                       0.0101783       0.0186093         0.742066      -0.0245805      -0.00156149     -0.00288463
                    -0.000310174     -0.00375296      -0.00155907     -0.00288707          0.71208       -0.120169
5.006                   0.744538      -0.0161629        0.0104025       0.0184377     -0.000364451     -0.00377246
                       0.0104024       0.0184376         0.742041      -0.0240568      -0.00160218     -0.00285971
                     -0.00036726     -0.00375987      -0.00159992     -0.00286227         0.710861       -0.119581
5.007                    0.74462      -0.0156795        0.0106232       0.0182635     -0.000422883     -0.00377852
                       0.0106231       0.0182634         0.742022      -0.0235339      -0.00164239     -0.00283428
                    -0.000424928     -0.00376587      -0.00164031     -0.00283696         0.709643       -0.118977
5.008                   0.744706      -0.0151983        0.0108404       0.0180868     -0.000481879      -0.0037836
                       0.0108403       0.0180867         0.742008      -0.0230118      -0.00168213     -0.00280834
                    -0.000483161     -0.00377094      -0.00168023     -0.00281113         0.708426       -0.118358
5.009                   0.744798      -0.0147196        0.0110541       0.0179076     -0.000541417     -0.00378766
                       0.0110541       0.0179076            0.742      -0.0224907      -0.00172139     -0.00278192
                    -0.000541941     -0.00377505      -0.00171967     -0.00278479         0.707209       -0.117722
5.01                    0.744893      -0.0142433        0.0112643       0.0177262      -0.00060148     -0.00379069
                       0.0112643       0.0177262         0.741997      -0.0219707      -0.00176017     -0.00275502
                    -0.000601253     -0.00377816      -0.00175864     -0.00275797         0.705995       -0.117071
5.011                   0.744993      -0.0137694         0.011471       0.0175425     -0.000662041     -0.00379265
                        0.011471       0.0175425            0.742      -0.0214519      -0.00179846     -0.00272765
                    -0.000661078     -0.00378024      -0.00179713     -0.00273068         0.704781       -0.116403
5.012                   0.745098      -0.0132982        0.0116742       0.0173567     -0.000723079     -0.00379351
                       0.0116742       0.0173567         0.742008      -0.0209342      -0.00183627     -0.00269984
                    -0.000721391     -0.00378127      -0.00183513     -0.00270291          0.70357       -0.115719
5.013                   0.745207      -0.0128295        0.0118739       0.0171687     -0.000784567     -0.00379324
                       0.0118738       0.0171687         0.742022      -0.0204178      -0.00187359     -0.00267158
                    -0.000782173     -0.00378121      -0.00187265      -0.0026747         0.702361       -0.115019
5.014                   0.745321      -0.0123634          0.01207       0.0169788      -0.00084648     -0.00379182
                       0.0120699       0.0169788         0.742041      -0.0199029      -0.00191043     -0.00264289
                    -0.000843397     -0.00378004      -0.00190969     -0.00264604         0.701154       -0.114302
5.015                   0.745439      -0.0119001        0.0122625       0.0167869     -0.000908791     -0.00378922
                       0.0122625       0.0167869         0.742066      -0.0193894      -0.00194678     -0.00261378
                     -0.00090504     -0.00377773      -0.00194624     -0.00261695          0.69995       -0.113569
5.016                   0.745561      -0.0114395        0.0124515       0.0165931     -0.000971468     -0.00378542
                       0.0124515       0.0165931         0.742096      -0.0188775      -0.00198264     -0.00258427
                    -0.000967071     -0.00377425       -0.0019823     -0.00258744         0.698748       -0.112819
5.017                   0.745687      -0.0109818         0.012637       0.0163976      -0.00103448     -0.00378038
                        0.012637       0.0163976         0.742131      -0.0183673      -0.00201802     -0.00255435
                     -0.00102946     -0.00376958      -0.00201787     -0.00255752          0.69755       -0.112052
5.018                   0.745818      -0.0105269        0.0128189       0.0162003       -0.0010978      -0.0037741
                       0.0128189       0.0162003         0.742172      -0.0178588      -0.00205291     -0.00252405
                     -0.00109219     -0.00376369      -0.00205296      -0.0025272         0.696356       -0.111269
5.019                   0.745953      -0.0100749        0.0129973       0.0160014      -0.00116139     -0.00376654
                       0.0129973       0.0160014         0.742218      -0.0173521      -0.00208732     -0.00249337
                     -0.00115521     -0.00375655      -0.00208756     -0.00249649         0.695165       -0.110469
5.02                    0.746092     -0.00962584        0.0131721        0.015801      -0.00122522     -0.00375768
                       0.0131721        0.015801          0.74227      -0.0168473      -0.00212125     -0.00246232
                     -0.00121851     -0.00374815      -0.00212167      -0.0024654         0.693978       -0.109651
5.021                   0.746235      -0.0091798        0.0133434        0.015599      -0.00128924     -0.00374751
                       0.0133434        0.015599         0.742327      -0.0163445      -0.00215469     -0.00243092
                     -0.00128203     -0.00373847       -0.0021553     -0.00243394         0.692795       -0.108817
5.022                   0.746382      -0.0087368        0.0135111       0.0153956      -0.00135344     -0.00373601
                       0.0135111       0.0153956         0.742389      -0.0158437      -0.00218766     -0.00239916
                     -0.00134575     -0.00372747      -0.00218845     -0.00240212         0.691617       -0.107965
5.023                   0.746533     -0.00829687        0.0136754       0.0151908      -0.00141776     -0.00372316
                       0.0136754       0.0151909         0.742456      -0.0153451      -0.00222015     -0.00236705
                     -0.00140964     -0.00371515      -0.00222112     -0.00236994         0.690444       -0.107097
5.024                   0.746688     -0.00786012        0.0138361       0.0149848      -0.00148216     -0.00370894
                       0.0138361       0.0149848         0.742528      -0.0148487      -0.00225217     -0.00233462
                     -0.00147364     -0.00370149       -0.0022533     -0.00233742         0.689276       -0.106211
5.025                   0.746846      -0.0074265        0.0139933       0.0147775      -0.00154662     -0.00369335
                       0.0139933       0.0147775         0.742605      -0.0143546      -0.00228372     -0.00230185
                     -0.00153774     -0.00368647      -0.00228501     -0.00230456         0.688114       -0.105308
5.026                   0.747009     -0.00699611         0.014147       0.0145691      -0.00161109     -0.00367636
                        0.014147       0.0145691         0.742688      -0.0138629       -0.0023148     -0.00226876
                     -0.00160188     -0.00367007      -0.00231624     -0.00227136         0.686958       -0.104388
5.027                   0.747175     -0.00656895        0.0142973       0.0143595      -0.00167552     -0.00365797
                       0.0142973       0.0143595         0.742775      -0.0133736      -0.00234541     -0.00223535
                     -0.00166602     -0.00365228        -0.002347     -0.00223785         0.685808        -0.10345
5.028                   0.747346     -0.00614509        0.0144441        0.014149      -0.00173989     -0.00363817
                       0.0144441        0.014149         0.742868      -0.0128868      -0.00237556     -0.00220164
                     -0.00173013      -0.0036331      -0.00237729     -0.00220401         0.684664       -0.102495
5.029                   0.747519     -0.00572456        0.0145874       0.0139374      -0.00180413     -0.00361696
                       0.0145874       0.0139374         0.742965      -0.0124026      -0.00240526     -0.00216762
                     -0.00179417     -0.00361251      -0.00240712     -0.00216987         0.683528       -0.101522
5.03                    0.747697     -0.00530739        0.0147273       0.0137249      -0.00186822     -0.00359431
                       0.0147273       0.0137249         0.743068      -0.0119211      -0.00243449      -0.0021333
                     -0.00185808      -0.0035905      -0.00243647     -0.00213541         0.682398       -0.100532
5.031                   0.747878     -0.00489359        0.0148638       0.0135115      -0.00193211     -0.00357024
                       0.0148638       0.0135115         0.743175      -0.0114424      -0.00246328     -0.00209868
                     -0.00192183     -0.00356706      -0.00246537     -0.00210066         0.681276       -0.099525
5.032                   0.748062     -0.00448325        0.0149969       0.0132974      -0.00199575     -0.00354474
                       0.0149969       0.0132974         0.743287      -0.0109664      -0.00249161     -0.00206378
                     -0.00198538      -0.0035422      -0.00249381      -0.0020656         0.680162      -0.0985003
5.033                    0.74825     -0.00407638        0.0151266       0.0130825       -0.0020591     -0.00351781
                       0.0151267       0.0130825         0.743403      -0.0104934       -0.0025195     -0.00202858
                     -0.00204868     -0.00351591      -0.00252179     -0.00203026         0.679056      -0.0974581
5.034                   0.748441     -0.00367296         0.015253       0.0128669      -0.00212212     -0.00348945
                        0.015253       0.0128669         0.743524      -0.0100232      -0.00254694      -0.0019931
                     -0.00211168     -0.00348819      -0.00254931     -0.00199462         0.677959      -0.0963987
5.035                   0.748636      -0.0032731         0.015376       0.0126506      -0.00218477     -0.00345966
                        0.015376       0.0126506          0.74365     -0.00955609      -0.00257395     -0.00195734
                     -0.00217435     -0.00345903      -0.00257638      -0.0019587          0.67687      -0.0953217
5.036                   0.748834      -0.0028768        0.0154957       0.0124338        -0.002247     -0.00342845
                       0.0154957       0.0124338         0.743781     -0.00909205      -0.00260051      -0.0019213
                     -0.00223663     -0.00342844      -0.00260301      -0.0019225         0.675791      -0.0942275
5.037                   0.749035     -0.00248406        0.0156121       0.0122164      -0.00230876     -0.00339583
                       0.0156121       0.0122164         0.743916      -0.0086311      -0.00262664     -0.00188497
                     -0.00229849     -0.00339643      -0.00262919     -0.00188601         0.674722       -0.093116
5.038                    0.74924     -0.00209494        0.0157252       0.0119985      -0.00237002     -0.00336179
                       0.0157252       0.0119985         0.744055     -0.00817339      -0.00265233     -0.00184837
                     -0.00235988       -0.003363      -0.00265492     -0.00184925         0.673662      -0.0919873
5.039                   0.749447     -0.00170944        0.0158351       0.0117802      -0.00243072     -0.00332636
                       0.0158351       0.0117802         0.744199     -0.00771889      -0.00267759      -0.0018115
                     -0.00242075     -0.00332816      -0.00268021      -0.0018122         0.672613      -0.0908414
5.04                    0.749658     -0.00132762        0.0159417       0.0115615      -0.00249084     -0.00328954
                       0.0159417       0.0115615         0.744347     -0.00726773      -0.00270242     -0.00177434
                     -0.00248106     -0.00329192      -0.00270506     -0.00177488         0.671575      -0.0896783
5.041                   0.749872    -0.000949497        0.0160451       0.0113424      -0.00255031     -0.00325135
                       0.0160451       0.0113424         0.744499      -0.0068199      -0.00272682     -0.00173692
                     -0.00254077     -0.00325429      -0.00272947     -0.00173729         0.670548      -0.0884982
5.042                   0.750088    -0.000575066        0.0161453       0.0111231      -0.00260911      -0.0032118
                       0.0161453        0.011123         0.744655     -0.00637549      -0.00275079     -0.00169921
                     -0.00259983     -0.00321528      -0.00275344     -0.00169942         0.669532      -0.0873012
5.043                   0.750308    -0.000204379        0.0162423       0.0109034      -0.00266719     -0.00317091
                       0.0162423       0.0109034         0.744816     -0.00593456      -0.00277434     -0.00166123
                      -0.0026582     -0.00317491      -0.00277697     -0.00166127         0.668528      -0.0860873
5.044                   0.750531     0.000162566        0.0163362       0.0106836      -0.00272451      -0.0031287
                       0.0163362       0.0106836          0.74498     -0.00549713      -0.00279745     -0.00162297
                     -0.00271584      -0.0031332      -0.00280006     -0.00162285         0.667536      -0.0848567
5.045                   0.750756     0.000525734         0.016427       0.0104636      -0.00278103     -0.00308518
                        0.016427       0.0104635         0.745149     -0.00506328      -0.00282014     -0.00158443
                      -0.0027727     -0.00309015      -0.00282272     -0.00158416         0.666557      -0.0836094
5.046                   0.750984     0.000885074        0.0165147       0.0102434       -0.0028367     -0.00304038
                       0.0165147       0.0102434         0.745321     -0.00463304       -0.0028424     -0.00154562
                     -0.00282875      -0.0030458      -0.00284494     -0.00154519         0.665591      -0.0823456
5.047                   0.751215      0.00124063        0.0165992       0.0100232       -0.0028915     -0.00299433
                       0.0165993       0.0100231         0.745498     -0.00420645      -0.00286423     -0.00150652
                     -0.00288395     -0.00300017      -0.00286672     -0.00150594         0.664638      -0.0810655
5.048                   0.751449      0.00159232        0.0166808      0.00980285      -0.00294538     -0.00294704
                       0.0166808      0.00980281         0.745678     -0.00378356      -0.00288564     -0.00146714
                     -0.00293825     -0.00295328      -0.00288806     -0.00146641         0.663698      -0.0797692
5.049                   0.751685      0.00194015        0.0167593      0.00958252      -0.00299831     -0.00289854
                       0.0167593      0.00958248         0.745861     -0.00336442       -0.0029066     -0.00142748
                     -0.00299161     -0.00290515      -0.00290896     -0.00142661         0.662773      -0.0784568
5.05                    0.751924      0.00228412        0.0168348      0.00936222      -0.00305025     -0.00284886
                       0.0168348      0.00936218         0.746049     -0.00294906      -0.00292713     -0.00138753
                     -0.00304401      -0.0028558      -0.00292942     -0.00138652         0.661862      -0.0771285
5.051                   0.752165      0.00262419        0.0169073      0.00914198      -0.00310117     -0.00279803
                       0.0169073      0.00914194          0.74624     -0.00253751      -0.00294723     -0.00134729
                      -0.0030954     -0.00280528      -0.00294943     -0.00134615         0.660966      -0.0757844
5.052                   0.752409      0.00296033        0.0169769      0.00892183      -0.00315103     -0.00274607
                       0.0169769      0.00892179         0.746434     -0.00212983      -0.00296688     -0.00130676
                     -0.00314574      -0.0027536      -0.00296899      -0.0013055         0.660086      -0.0744248
5.053                   0.752655      0.00329256        0.0170435      0.00870181       -0.0031998     -0.00269303
                       0.0170435      0.00870176         0.746632     -0.00172603      -0.00298609     -0.00126594
                     -0.00319501      -0.0027008       -0.0029881     -0.00126456          0.65922        -0.07305
5.054                   0.752904      0.00362084        0.0171072      0.00848195      -0.00324745     -0.00263893
                       0.0171072      0.00848191         0.746833     -0.00132614      -0.00300485     -0.00122483
                     -0.00324318     -0.00264691      -0.00300676     -0.00122334         0.658371      -0.0716599
5.055                   0.753155      0.00394517        0.0171681      0.00826229      -0.00329396      -0.0025838
                        0.017168      0.00826224         0.747038    -0.000930204      -0.00302316     -0.00118342
                      -0.0032902     -0.00259196      -0.00302495     -0.00118183         0.657538       -0.070255
5.056                   0.753408      0.00426548         0.017226      0.00804287      -0.00333929     -0.00252768
                        0.017226      0.00804282         0.747245    -0.000538256        -0.003041     -0.00114171
                     -0.00333605     -0.00253599      -0.00304268     -0.00114002         0.656721      -0.0688354
5.057                   0.753663      0.00458183        0.0172812       0.0078237      -0.00338341      -0.0024706
                       0.0172812      0.00782365         0.747456    -0.000150326      -0.00305838      -0.0010997
                      -0.0033807     -0.00247903      -0.00305994     -0.00109793         0.655921      -0.0674014
5.058                   0.753921      0.00489417        0.0173335      0.00760483      -0.00342631      -0.0024126
                       0.0173335      0.00760478          0.74767     0.000233607      -0.00307529     -0.00105739
                     -0.00342413     -0.00242112      -0.00307673     -0.00105554         0.655139      -0.0659532
5.059                   0.754181      0.00520251         0.017383      0.00738628      -0.00346796     -0.00235373
                        0.017383      0.00738623         0.747887     0.000613451      -0.00309172     -0.00101478
                      -0.0034663     -0.00236229      -0.00309303     -0.00101286         0.654374       -0.064491
5.06                    0.754443      0.00550679        0.0174298      0.00716809      -0.00350833       -0.002294
                       0.0174298      0.00716804         0.748106     0.000989215      -0.00310767    -0.000971867
                      -0.0035072     -0.00230258      -0.00310885    -0.000969886         0.653628      -0.0630152
5.061                   0.754707      0.00580705        0.0174738      0.00695028      -0.00354741     -0.00223347
                       0.0174738      0.00695023         0.748329      0.00136088      -0.00312312    -0.000928646
                      -0.0035468     -0.00224204      -0.00312416    -0.000926614         0.652899       -0.061526
5.062                   0.754973      0.00610323        0.0175151      0.00673289      -0.00358517     -0.00217217
                       0.0175151      0.00673284         0.748554      0.00172843      -0.00313807    -0.000885122
                     -0.00358508     -0.00218069      -0.00313898    -0.000883046         0.652189      -0.0600238
5.063                   0.755241      0.00639533        0.0175538      0.00651594      -0.00362161     -0.00211014
                       0.0175537      0.00651589         0.748782      0.00209187      -0.00315251    -0.000841292
                     -0.00362202     -0.00211859      -0.00315328    -0.000839181         0.651499      -0.0585088
5.064                    0.75551      0.00668337        0.0175897      0.00629946      -0.00365669     -0.00204743
                       0.0175897      0.00629942         0.749013      0.00245111      -0.00316642    -0.000797157
                     -0.00365761     -0.00205577      -0.00316706    -0.000795019         0.650827      -0.0569813
5.065                   0.755782      0.00696731         0.017623      0.00608348      -0.00369042     -0.00198406
                        0.017623      0.00608344         0.749246      0.00280622      -0.00317981    -0.000752717
                     -0.00369183     -0.00199227      -0.00318032    -0.000750561         0.650175      -0.0554417
5.066                   0.756055      0.00724714        0.0176537      0.00586803      -0.00372277     -0.00192009
                       0.0176537      0.00586799         0.749481      0.00315715      -0.00319267    -0.000707972
                     -0.00372465     -0.00192814      -0.00319303    -0.000705808         0.649543      -0.0538903
5.067                    0.75633      0.00752285        0.0176818      0.00565314      -0.00375374     -0.00185555
                       0.0176818       0.0056531          0.74972      0.00350386      -0.00320497    -0.000662925
                     -0.00375608     -0.00186341       -0.0032052     -0.00066076         0.648931      -0.0523273
5.068                   0.756607      0.00779443        0.0177074      0.00543882      -0.00378331     -0.00179048
                       0.0177073      0.00543878          0.74996       0.0038464      -0.00321671    -0.000617576
                      -0.0037861     -0.00179812       -0.0032168    -0.000615419          0.64834      -0.0507533
5.069                   0.756886      0.00806188        0.0177303      0.00522511      -0.00381148     -0.00172493
                       0.0177303      0.00522507         0.750203      0.00418471      -0.00322788    -0.000571929
                      -0.0038147     -0.00173233      -0.00322784    -0.000569788         0.647769      -0.0491686
5.07                    0.757166      0.00832517        0.0177508      0.00501203      -0.00383825     -0.00165893
                       0.0177507        0.005012         0.750448      0.00451882      -0.00323847    -0.000525986
                     -0.00384188     -0.00166607       -0.0032383    -0.000523869          0.64722      -0.0475734
5.071                   0.757447      0.00858433        0.0177688       0.0047996       -0.0038636     -0.00159252
                       0.0177687      0.00479957         0.750695       0.0048487      -0.00324846    -0.000479749
                     -0.00386762     -0.00159938      -0.00324816    -0.000477665         0.646691      -0.0459683
5.072                   0.757731       0.0088393        0.0177842      0.00458786      -0.00388753     -0.00152576
                       0.0177842      0.00458783         0.750944      0.00517435      -0.00325785    -0.000433224
                     -0.00389192     -0.00153231      -0.00325743    -0.000431179         0.646185      -0.0443534
5.073                   0.758015      0.00909011        0.0177973      0.00437682      -0.00391004     -0.00145866
                       0.0177972       0.0043768         0.751195      0.00549578      -0.00326662    -0.000386414
                     -0.00391478     -0.00146489      -0.00326608    -0.000384417           0.6457      -0.0427294
5.074                   0.758301      0.00933673        0.0178079      0.00416651      -0.00393114     -0.00139129
                       0.0178078      0.00416649         0.751448        0.005813      -0.00327476    -0.000339326
                     -0.00393621     -0.00139717       -0.0032741    -0.000337382         0.645237      -0.0410966
5.075                   0.758589      0.00957916        0.0178161      0.00395695      -0.00395082     -0.00132366
                        0.017816      0.00395693         0.751703      0.00612596      -0.00328226    -0.000291963
                     -0.00395619     -0.00132919      -0.00328149    -0.000290079         0.644796      -0.0394553
5.076                   0.758877      0.00981737        0.0178219      0.00374816      -0.00396909     -0.00125584
                       0.0178219      0.00374815          0.75196       0.0064347      -0.00328911    -0.000244333
                     -0.00397473     -0.00126099      -0.00328823    -0.000242516         0.644378       -0.037806
5.077                   0.759167       0.0100514        0.0178254      0.00354018      -0.00398594     -0.00118784
                       0.0178254      0.00354017         0.752218      0.00673922      -0.00329528    -0.000196442
                     -0.00399184      -0.0011926       -0.0032943    -0.000194698         0.643983      -0.0361491
5.078                   0.759458       0.0102812        0.0178266      0.00333301      -0.00400139     -0.00111972
                       0.0178265        0.003333         0.752478      0.00703952      -0.00330078    -0.000148298
                     -0.00400752     -0.00112408       -0.0032997    -0.000146632          0.64361      -0.0344851
5.079                   0.759751       0.0105068        0.0178254      0.00312668      -0.00401545      -0.0010515
                       0.0178254      0.00312668          0.75274       0.0073356      -0.00330558    -9.99096e-05
                     -0.00402177     -0.00105546      -0.00330441    -9.83245e-05          0.64326      -0.0328142
5.08                    0.760044       0.0107282         0.017822      0.00292121      -0.00402811    -0.000983229
                        0.017822      0.00292122         0.753003      0.00762746      -0.00330968    -5.12857e-05
                     -0.00403461    -0.000986768      -0.00330843    -4.97908e-05         0.642934      -0.0311373
5.081                   0.760339       0.0109452        0.0178164      0.00271663      -0.00403939    -0.000914938
                       0.0178163      0.00271664         0.753268      0.00791513      -0.00331306    -2.43582e-06
                     -0.00404604    -0.000918057      -0.00331173    -1.03185e-06         0.642631      -0.0294544
5.082                   0.760634       0.0111581        0.0178084      0.00251295      -0.00404931    -0.000846663
                       0.0178084      0.00251296         0.753534      0.00819858      -0.00331571     4.66308e-05
                     -0.00405607    -0.000849353      -0.00331431     4.79371e-05         0.642351      -0.0277661
5.083                   0.760931       0.0113668        0.0177983      0.00231021      -0.00405786    -0.000778436
                       0.0177983      0.00231023         0.753802       0.0084778      -0.00331762     9.59007e-05
                     -0.00406472      -0.0007807      -0.00331615     9.71089e-05         0.642096      -0.0260729
5.084                   0.761228       0.0115712        0.0177861      0.00210839      -0.00406507    -0.000710294
                        0.017786      0.00210841         0.754071      0.00875293      -0.00331877     0.000145366
                       -0.004072    -0.000712124      -0.00331724     0.000146471         0.641864      -0.0243753
5.085                   0.761526       0.0117713        0.0177716      0.00190755      -0.00407094    -0.000642269