! TOUCHSTONE file generated by CST MICROWAVE STUDIO
! Date and time: Tue Sep 29 13:50:47 2020
! Project name: Donna Lung Lower Right.cst
! Header version: 2018
! Port assignment regex: !\s*Touchstone port\s*([0-9]+)\s*=\s*(CST MWS port|CST DS port)\s*([0-9]+|Zmin|Zmax)\s*\(\"(.*)\"\)(\s*mode\s*([0-9]+))?.*
! Touchstone port assignment:
! Touchstone port 1 = CST MWS port 1 ("")
! Touchstone port 2 = CST MWS port 2 ("")
! Touchstone port 3 = CST MWS port 3 ("")
# GHz S RI R 50
5                       0.807749      -0.0570604        0.0064028      -0.0110414       0.00040942     0.000673277
                      0.00644304      -0.0110269         0.788526      -0.0189725     -5.29766e-06     0.000555962
                     0.000399521     0.000665602      2.30706e-05     0.000558799          0.85962      -0.0504879
5.001                   0.807408      -0.0571861       0.00632178      -0.0110805      0.000421968     0.000666783
                       0.0063625      -0.0110685          0.78851      -0.0189899      2.48416e-06     0.000557426
                     0.000411703     0.000659754      3.07435e-05     0.000558604          0.85935      -0.0509506
5.002                   0.807066      -0.0573094       0.00624087      -0.0111192      0.000434408     0.000660043
                       0.0062819      -0.0111099         0.788492       -0.019008      1.03426e-05     0.000558822
                     0.000423817     0.000653675      3.83994e-05     0.000558363         0.859077       -0.051412
5.003                   0.806721      -0.0574303       0.00616003      -0.0111577      0.000446733     0.000653059
                      0.00620123       -0.011151         0.788472      -0.0190268       1.8279e-05     0.000560145
                     0.000435859     0.000647365      4.60419e-05     0.000558077         0.858801      -0.0518721
5.004                   0.806375      -0.0575489       0.00607928       -0.011196      0.000458939     0.000645832
                      0.00612048      -0.0111918          0.78845      -0.0190462      2.62948e-05     0.000561392
                     0.000447822     0.000640823      5.36747e-05     0.000557746         0.858523      -0.0523309
5.005                   0.806028      -0.0576651       0.00599861       -0.011234      0.000471021     0.000638366
                      0.00603965      -0.0112323         0.788426      -0.0190663       3.4391e-05     0.000562558
                     0.000459703     0.000634051      6.13016e-05     0.000557372         0.858242      -0.0527885
5.006                   0.805678      -0.0577788       0.00591799      -0.0112718      0.000482973     0.000630662
                      0.00595873      -0.0112726           0.7884      -0.0190869      4.25685e-05      0.00056364
                     0.000471496     0.000627047      6.89262e-05     0.000556954         0.857958      -0.0532448
5.007                   0.805328      -0.0578901       0.00583743      -0.0113094      0.000494791     0.000622723
                      0.00587772      -0.0113127         0.788372      -0.0191079       5.0828e-05     0.000564634
                     0.000483196     0.000619812      7.65524e-05     0.000556494         0.857671      -0.0536997
5.008                   0.804975       -0.057999       0.00575692      -0.0113467      0.000506468     0.000614552
                       0.0057966      -0.0113525         0.788341      -0.0191294      5.91698e-05     0.000565533
                     0.000494799     0.000612345      8.41839e-05     0.000555989         0.857381      -0.0541534
5.009                   0.804621      -0.0581054       0.00567644      -0.0113839      0.000518002     0.000606152
                      0.00571539       -0.011392         0.788309      -0.0191512      6.75941e-05     0.000566335
                     0.000506298     0.000604649      9.18245e-05      0.00055544         0.857089      -0.0546058
5.01                    0.804265      -0.0582093       0.00559598       -0.011421      0.000529385     0.000597525
                      0.00563405      -0.0114314         0.788275      -0.0191734       7.6101e-05     0.000567035
                      0.00051769     0.000596722      9.94775e-05     0.000554846         0.856793      -0.0550568
5.011                   0.803908      -0.0583106       0.00551553      -0.0114578      0.000540615     0.000588676
                       0.0055526      -0.0114704         0.788238      -0.0191958        8.469e-05     0.000567627
                     0.000528968     0.000588566      0.000107147     0.000554206         0.856495      -0.0555065
5.012                   0.803549      -0.0584095       0.00543509      -0.0114946      0.000551685     0.000579606
                      0.00547103      -0.0115093         0.788199      -0.0192184      9.33607e-05     0.000568108
                     0.000540127     0.000580181      0.000114836     0.000553518         0.856194      -0.0559549
5.013                   0.803188      -0.0585058       0.00535463      -0.0115311      0.000562592      0.00057032
                      0.00538932      -0.0115479         0.788159      -0.0192412      0.000102112     0.000568473
                     0.000551162      0.00057157      0.000122548     0.000552781         0.855891       -0.056402
5.014                   0.802826      -0.0585995       0.00527414      -0.0115676      0.000573331      0.00056082
                      0.00530747      -0.0115863         0.788116      -0.0192641      0.000110944     0.000568717
                     0.000562067     0.000562732      0.000130287     0.000551992         0.855584      -0.0568476
5.015                   0.802463      -0.0586906        0.0051936      -0.0116039      0.000583898      0.00055111
                      0.00522548      -0.0116245         0.788071      -0.0192871      0.000119854     0.000568835
                     0.000572837      0.00055367      0.000138055     0.000551149         0.855275       -0.057292
5.016                   0.802098      -0.0587791       0.00511302      -0.0116402      0.000594287     0.000541195
                      0.00514333      -0.0116625         0.788024        -0.01931      0.000128841     0.000568822
                     0.000583467     0.000544384      0.000145855      0.00055025         0.854963      -0.0577349
5.017                   0.801731       -0.058865       0.00503236      -0.0116763      0.000604496     0.000531077
                      0.00506102      -0.0117003         0.787975      -0.0193329      0.000137903     0.000568675
                      0.00059395     0.000534877      0.000153691     0.000549292         0.854648      -0.0581765
5.018                   0.801363      -0.0589482       0.00495161      -0.0117124      0.000614519      0.00052076
                      0.00497853      -0.0117378         0.787924      -0.0193557      0.000147039     0.000568388
                     0.000604282     0.000525151      0.000161565     0.000548271          0.85433      -0.0586166
5.019                   0.800993      -0.0590286       0.00487076      -0.0117483      0.000624353     0.000510249
                      0.00489587      -0.0117752         0.787871      -0.0193784      0.000156245     0.000567956
                     0.000614456     0.000515207       0.00016948     0.000547185         0.854009      -0.0590554
5.02                    0.800622      -0.0591064       0.00478979      -0.0117842      0.000633994     0.000499546
                      0.00481302      -0.0118124         0.787816      -0.0194009      0.000165521     0.000567376
                     0.000624467     0.000505048      0.000177437      0.00054603         0.853686      -0.0594927
5.021                    0.80025      -0.0591814       0.00470867      -0.0118201      0.000643438     0.000488658
                      0.00472998      -0.0118493         0.787758      -0.0194231      0.000174862     0.000566643
                     0.000634311     0.000494677      0.000185439     0.000544802         0.853359      -0.0599286
5.022                   0.799876      -0.0592536       0.00462741      -0.0118558       0.00065268     0.000477586
                      0.00464673      -0.0118861         0.787699       -0.019445      0.000184266     0.000565752
                      0.00064398     0.000484096      0.000193488     0.000543498          0.85303      -0.0603631
5.023                   0.799501       -0.059323       0.00454597      -0.0118915      0.000661718     0.000466337
                      0.00456325      -0.0119227         0.787638      -0.0194665      0.000193731     0.000564699
                     0.000653471     0.000473308      0.000201585     0.000542113         0.852698      -0.0607962
5.024                   0.799124      -0.0593896       0.00446434      -0.0119272      0.000670549     0.000454914
                      0.00447956      -0.0119591         0.787575      -0.0194877      0.000203251      0.00056348
                     0.000662777     0.000462316      0.000209731     0.000540643         0.852364      -0.0612278
5.025                   0.798746      -0.0594533       0.00438249      -0.0119628      0.000679167     0.000443321
                      0.00439563      -0.0119954          0.78751      -0.0195084      0.000212825     0.000562091
                     0.000671893     0.000451123      0.000217928     0.000539084         0.852026      -0.0616579
5.026                   0.798367      -0.0595141       0.00430043      -0.0119984      0.000687571     0.000431563
                      0.00431145      -0.0120314         0.787443      -0.0195287      0.000222447     0.000560527
                     0.000680814     0.000439734      0.000226177     0.000537432         0.851686      -0.0620865
5.027                   0.797986       -0.059572       0.00421811      -0.0120339      0.000695757     0.000419645
                      0.00422701      -0.0120673         0.787374      -0.0195484      0.000232114     0.000558787
                     0.000689535      0.00042815      0.000234477     0.000535681         0.851342      -0.0625137
5.028                   0.797604       -0.059627       0.00413552      -0.0120693      0.000703722     0.000407571
                      0.00414231       -0.012103         0.787303      -0.0195676      0.000241823     0.000556864
                      0.00069805     0.000416377       0.00024283     0.000533827         0.850996      -0.0629394
5.029                   0.797221      -0.0596789       0.00405265      -0.0121048      0.000711463     0.000395345
                      0.00405731      -0.0121385          0.78723      -0.0195861      0.000251568     0.000554756
                     0.000706355     0.000404419      0.000251235     0.000531865         0.850648      -0.0633635
5.03                    0.796837      -0.0597279       0.00396948      -0.0121401      0.000718977     0.000382974
                      0.00397203      -0.0121739         0.787155       -0.019604      0.000261345     0.000552461
                     0.000714445     0.000392278      0.000259692      0.00052979         0.850296      -0.0637861
5.031                   0.796451      -0.0597739       0.00388597      -0.0121755      0.000726262      0.00037046
                      0.00388645      -0.0122091         0.787079      -0.0196211      0.000271149     0.000549973
                     0.000722314     0.000379961        0.0002682     0.000527597         0.849941      -0.0642072
5.032                   0.796064      -0.0598167       0.00380212      -0.0122108      0.000733314      0.00035781
                      0.00380055      -0.0122441         0.787001      -0.0196376      0.000280975     0.000547291
                     0.000729959     0.000367471      0.000276759     0.000525282         0.849584      -0.0646267
5.033                   0.795676      -0.0598565       0.00371791       -0.012246      0.000740132     0.000345028
                      0.00371431      -0.0122789         0.786921      -0.0196532      0.000290819     0.000544412
                     0.000737373     0.000354813      0.000285367     0.000522839         0.849224      -0.0650447
5.034                   0.795288      -0.0598932        0.0036333      -0.0122812      0.000746713     0.000332118
                      0.00362774      -0.0123136         0.786839      -0.0196681      0.000300674     0.000541333
                     0.000744554     0.000341992      0.000294022     0.000520263         0.848861      -0.0654611
5.035                   0.794897      -0.0599267       0.00354829      -0.0123163      0.000753055     0.000319087
                       0.0035408       -0.012348         0.786755      -0.0196821      0.000310537     0.000538051
                     0.000751496     0.000329012      0.000302724     0.000517549         0.848495       -0.065876
5.036                   0.794506      -0.0599571       0.00346286      -0.0123514      0.000759156     0.000305938
                       0.0034535      -0.0123823          0.78667      -0.0196952        0.0003204     0.000534565
                     0.000758196      0.00031588      0.000311469     0.000514693         0.848127      -0.0662892
5.037                   0.794114      -0.0599843       0.00337698      -0.0123864      0.000765014     0.000292677
                      0.00336581      -0.0124165         0.786583      -0.0197074       0.00033026     0.000530872
                     0.000764649     0.000302601      0.000320256     0.000511688         0.847756      -0.0667008
5.038                   0.793721      -0.0600082       0.00329064      -0.0124213      0.000770626     0.000279308
                      0.00327773      -0.0124504         0.786494      -0.0197186      0.000340109     0.000526971
                     0.000770852     0.000289179      0.000329081     0.000508531         0.847382      -0.0671109
5.039                   0.793328      -0.0600289       0.00320381      -0.0124561      0.000775992     0.000265838
                      0.00318924      -0.0124842         0.786404      -0.0197289      0.000349943     0.000522859
                       0.0007768     0.000275621      0.000337942     0.000505217         0.847005      -0.0675193
5.04                    0.792933      -0.0600463       0.00311647      -0.0124908      0.000781109     0.000252271
                      0.00310032      -0.0125178         0.786312      -0.0197381      0.000359755     0.000518537
                     0.000782491     0.000261932      0.000346835      0.00050174         0.846625       -0.067926
5.041                   0.792537      -0.0600605       0.00302862      -0.0125254      0.000785976     0.000238611
                      0.00301096      -0.0125511         0.786218      -0.0197462      0.000369539     0.000514002
                      0.00078792     0.000248118      0.000355758     0.000498097         0.846243      -0.0683311
5.042                   0.792141      -0.0600713       0.00294022      -0.0125599      0.000790592     0.000224865
                      0.00292116      -0.0125843         0.786123      -0.0197533       0.00037929     0.000509253
                     0.000793085     0.000234186      0.000364705     0.000494282         0.845857      -0.0687346
5.043                   0.791744      -0.0600787       0.00285126      -0.0125943      0.000794956     0.000211037
                      0.00283088      -0.0126173         0.786027      -0.0197593      0.000389002      0.00050429
                     0.000797983      0.00022014      0.000373673     0.000490292         0.845469      -0.0691364
5.044                   0.791346      -0.0600828       0.00276173      -0.0126285      0.000799066     0.000197133
                      0.00274012      -0.0126501         0.785929      -0.0197641      0.000398668     0.000499113
                      0.00080261     0.000205989      0.000382657     0.000486122         0.845078      -0.0695365
5.045                   0.790947      -0.0600836       0.00267159      -0.0126626      0.000802922     0.000183157
                      0.00264886      -0.0126826         0.785829      -0.0197677      0.000408282     0.000493721
                     0.000806965     0.000191736      0.000391654     0.000481768         0.844685      -0.0699349
5.046                   0.790548      -0.0600809       0.00258084      -0.0126965      0.000806522     0.000169114
                      0.00255709      -0.0127149         0.785728      -0.0197702      0.000417838     0.000488115
                     0.000811044      0.00017739      0.000400657     0.000477226         0.844288      -0.0703316
5.047                   0.790149      -0.0600748       0.00248946      -0.0127302      0.000809867      0.00015501
                       0.0024648       -0.012747         0.785626      -0.0197714       0.00042733     0.000482294
                     0.000814846     0.000162957      0.000409662     0.000472492         0.843889      -0.0707266
5.048                   0.789748      -0.0600653       0.00239744      -0.0127637      0.000812954      0.00014085
                      0.00237196      -0.0127789         0.785522      -0.0197714      0.000436752     0.000476258
                     0.000818369     0.000148442      0.000418664     0.000467564         0.843487      -0.0711198
5.049                   0.789348      -0.0600523       0.00230475       -0.012797      0.000815784     0.000126638
                      0.00227857      -0.0128105         0.785417      -0.0197701      0.000446097      0.00047001
                      0.00082161     0.000133853      0.000427656     0.000462438         0.843083      -0.0715113
5.05                    0.788947      -0.0600359       0.00221138        -0.01283      0.000818357      0.00011238
                      0.00218461      -0.0128418         0.785311      -0.0197675      0.000455361     0.000463549
                     0.000824568     0.000119197      0.000436634      0.00045711         0.842675      -0.0719011
5.051                   0.788545      -0.0600159       0.00211732      -0.0128628      0.000820672     9.80812e-05
                      0.00209006      -0.0128729         0.785203      -0.0197636      0.000464535     0.000456877
                     0.000827243     0.000104479      0.000445591     0.000451578         0.842265      -0.0722891
5.052                   0.788144      -0.0599925       0.00202255      -0.0128954      0.000822729      8.3746e-05
                      0.00199492      -0.0129036         0.785094      -0.0197584      0.000473615     0.000449995
                     0.000829631     8.97063e-05       0.00045452      0.00044584         0.841852      -0.0726753
5.053                   0.787742      -0.0599656       0.00192705      -0.0129276      0.000824527     6.93796e-05
                      0.00189917      -0.0129341         0.784984      -0.0197518      0.000482594     0.000442906
                     0.000831734     7.48861e-05      0.000463416     0.000439893         0.841436      -0.0730598
5.054                   0.787339      -0.0599352       0.00183082      -0.0129595      0.000826068      5.4987e-05
                      0.00180278      -0.0129643         0.784873      -0.0197438      0.000491467     0.000435609
                     0.000833549     6.00249e-05      0.000472272     0.000433736         0.841018      -0.0734424
5.055                   0.786937      -0.0599013       0.00173385      -0.0129911      0.000827351     4.05729e-05
                      0.00170576      -0.0129941          0.78476      -0.0197344      0.000500227     0.000428109
                     0.000835078     4.51293e-05      0.000481082     0.000427365         0.840596      -0.0738233
5.056                   0.786535      -0.0598638       0.00163611      -0.0130224      0.000828376     2.61423e-05
                      0.00160809      -0.0130236         0.784647      -0.0197236       0.00050887     0.000420406
                     0.000836318     3.02061e-05      0.000489838     0.000420781         0.840172      -0.0742023
5.057                   0.786132      -0.0598228        0.0015376      -0.0130533      0.000829144        1.17e-05
                      0.00150976      -0.0130528         0.784532      -0.0197114      0.000517388     0.000412504
                      0.00083727     1.52618e-05      0.000498534     0.000413981         0.839746      -0.0745795
5.058                    0.78573      -0.0597783       0.00143831      -0.0130838      0.000829655     -2.7493e-06
                      0.00141074      -0.0130816         0.784416      -0.0196977      0.000525776     0.000404405
                     0.000837935     3.03195e-07      0.000507162     0.000406966         0.839316      -0.0749549
5.059                   0.785328      -0.0597303       0.00133823      -0.0131138       0.00082991    -1.72008e-05
                      0.00131104        -0.01311         0.784299      -0.0196825       0.00053403     0.000396111
                     0.000838312    -1.46631e-05      0.000515716     0.000399734         0.838884      -0.0753284
5.06                    0.784925      -0.0596787       0.00123735      -0.0131435      0.000829909    -3.16497e-05
                      0.00121063      -0.0131379         0.784181      -0.0196658      0.000542143     0.000387627
                     0.000838402    -2.96305e-05      0.000524189     0.000392285         0.838449      -0.0757001
5.061                   0.784523      -0.0596236       0.00113566      -0.0131726      0.000829654    -4.60914e-05
                      0.00110951      -0.0131655         0.784063      -0.0196476      0.000550111     0.000378955
                     0.000838206    -4.45929e-05      0.000532573     0.000384619         0.838011      -0.0760698
5.062                   0.784122       -0.059565       0.00103315      -0.0132013      0.000829145    -6.05215e-05
                      0.00100767      -0.0131927         0.783943      -0.0196279      0.000557928     0.000370098
                     0.000837726    -5.95431e-05      0.000540861     0.000376737         0.837571      -0.0764378
5.063                    0.78372      -0.0595029       0.00092982      -0.0132295      0.000828383    -7.49356e-05
                     0.000905093      -0.0132193         0.783822      -0.0196067      0.000565589      0.00036106
                     0.000836961    -7.44753e-05      0.000549046     0.000368638         0.837127      -0.0768038
5.064                   0.783319      -0.0594373      0.000825661      -0.0132571       0.00082737    -8.93289e-05
                     0.000801769      -0.0132455         0.783701      -0.0195839      0.000573089     0.000351846
                     0.000835913    -8.93833e-05       0.00055712     0.000360325         0.836681      -0.0771679
5.065                   0.782918      -0.0593681      0.000720667      -0.0132842      0.000826105    -0.000103697
                     0.000697694      -0.0132712         0.783578      -0.0195595      0.000580424     0.000342457
                     0.000834585     -0.00010426      0.000565077     0.000351799         0.836233      -0.0775301
5.066                   0.782518      -0.0592955      0.000614836      -0.0133106      0.000824591    -0.000118035
                     0.000592856      -0.0132964         0.783455      -0.0195336      0.000587589       0.0003329
                     0.000832977    -0.000119101      0.000572908      0.00034306         0.835781      -0.0778904
5.067                   0.782118      -0.0592194      0.000508163      -0.0133365      0.000822828    -0.000132341
                     0.000487251       -0.013321         0.783331       -0.019506      0.000594579     0.000323177
                     0.000831091    -0.000133898      0.000580607     0.000334111         0.835327      -0.0782488
5.068                   0.781719      -0.0591399      0.000400642      -0.0133617      0.000820819    -0.000146608
                     0.000380859      -0.0133451         0.783206      -0.0194769      0.000601391     0.000313294
                     0.000828931    -0.000148647      0.000588167     0.000324954          0.83487      -0.0786052
5.069                    0.78132      -0.0590568      0.000292282      -0.0133863      0.000818564    -0.000160833
                     0.000273691      -0.0133686          0.78308      -0.0194461       0.00060802     0.000303254
                     0.000826497    -0.000163342       0.00059558     0.000315592         0.834411      -0.0789596
5.07                    0.780923      -0.0589704      0.000183067      -0.0134102      0.000816064    -0.000175012
                     0.000165725      -0.0133915         0.782954      -0.0194136      0.000614462     0.000293062
                     0.000823792    -0.000177977       0.00060284     0.000306027         0.833948      -0.0793121
5.071                   0.780525      -0.0588806       7.3011e-05      -0.0134333      0.000813323     -0.00018914
                     5.69663e-05      -0.0134137         0.782827      -0.0193796      0.000620714     0.000282723
                     0.000820819    -0.000192546      0.000609939     0.000296263         0.833483      -0.0796626
5.072                   0.780129      -0.0587873     -3.78875e-05      -0.0134557       0.00081034    -0.000203214
                    -5.25981e-05      -0.0134353         0.782699      -0.0193438      0.000626772     0.000272242
                      0.00081758    -0.000207044      0.000616871     0.000286303         0.833015      -0.0800111
5.073                   0.779734      -0.0586907     -0.000149639      -0.0134774      0.000807118    -0.000217231
                    -0.000162969      -0.0134562         0.782571      -0.0193064      0.000632632     0.000261622
                     0.000814079    -0.000221466      0.000623628      0.00027615         0.832545      -0.0803577
5.074                   0.779339      -0.0585908     -0.000262229      -0.0134982      0.000803658    -0.000231185
                    -0.000274141      -0.0134764         0.782442      -0.0192673      0.000638291      0.00025087
                     0.000810318    -0.000235807      0.000630205     0.000265809         0.832072      -0.0807022
5.075                   0.778945      -0.0584875     -0.000375657      -0.0135182      0.000799963    -0.000245074
                    -0.000386127      -0.0134959         0.782312      -0.0192264      0.000643747     0.000239989
                       0.0008063    -0.000250061      0.000636595     0.000255283         0.831596      -0.0810447
5.076                   0.778553      -0.0583809     -0.000489926      -0.0135374      0.000796033    -0.000258894
                    -0.000498935      -0.0135146         0.782182      -0.0191839      0.000648996     0.000228986
                     0.000802028    -0.000264225      0.000642792     0.000244578         0.831117      -0.0813852
5.077                   0.778161      -0.0582711     -0.000605018      -0.0135557      0.000791872    -0.000272641
                    -0.000612548      -0.0135326         0.782052      -0.0191396      0.000654035     0.000217865
                     0.000797506    -0.000278293      0.000648789     0.000233697         0.830636      -0.0817236
5.078                    0.77777       -0.058158     -0.000720939      -0.0135731       0.00078748    -0.000286312
                    -0.000726979      -0.0135497         0.781921      -0.0190936      0.000658863     0.000206631
                     0.000792737    -0.000292262      0.000654582     0.000222646         0.830152        -0.08206
5.079                   0.777381      -0.0580418     -0.000837675      -0.0135896      0.000782859    -0.000299903
                    -0.000842221       -0.013566         0.781789      -0.0190459      0.000663476     0.000195289
                     0.000787725    -0.000306125      0.000660163     0.000211431         0.829665      -0.0823943
5.08                    0.776993      -0.0579223     -0.000955219      -0.0136051      0.000778012     -0.00031341
                    -0.000958274      -0.0135814         0.781657      -0.0189963      0.000667873     0.000183845
                     0.000782472    -0.000319881      0.000665527     0.000200056         0.829175      -0.0827265
5.081                   0.776606      -0.0577997      -0.00107356      -0.0136196      0.000772941    -0.000326831
                     -0.00107514       -0.013596         0.781525      -0.0189451      0.000672051     0.000172304
                     0.000776983    -0.000333524       0.00067067     0.000188527         0.828683      -0.0830567
5.082                    0.77622       -0.057674       -0.0011927      -0.0136331      0.000767647    -0.000340162
                     -0.00119281      -0.0136096         0.781392       -0.018892      0.000676009     0.000160671
                     0.000771261    -0.000347051      0.000675586     0.000176849         0.828188      -0.0833848
5.083                   0.775835      -0.0575452      -0.00131263      -0.0136456      0.000762133      -0.0003534
                     -0.00131128      -0.0136223         0.781259      -0.0188371      0.000679746     0.000148952
                      0.00076531    -0.000360458      0.000680271      0.00016503         0.827691      -0.0837107
5.084                   0.775452      -0.0574134      -0.00143332      -0.0136571      0.000756401    -0.000366543
                     -0.00143055       -0.013634         0.781126      -0.0187804      0.000683258      0.00013715
                     0.000759134    -0.000373742      0.000684719     0.000153075          0.82719      -0.0840346
5.085                    0.77507      -0.0572786      -0.00155478      -0.0136674      0.000750452    -0.000379586