! TOUCHSTONE file generated by CST MICROWAVE STUDIO
! Date and time: Tue Sep 29 16:45:19 2020
! Project name: Donna Lung Lower Right.cst
! Header version: 2018
! Port assignment regex: !\s*Touchstone port\s*([0-9]+)\s*=\s*(CST MWS port|CST DS port)\s*([0-9]+|Zmin|Zmax)\s*\(\"(.*)\"\)(\s*mode\s*([0-9]+))?.*
! Touchstone port assignment:
! Touchstone port 1 = CST MWS port 1 ("")
! Touchstone port 2 = CST MWS port 2 ("")
! Touchstone port 3 = CST MWS port 3 ("")
# GHz S RI R 50
5                       0.807834      -0.0569896       0.00642481      -0.0110316       0.00045322     0.000672482
                      0.00645955      -0.0110017         0.788512      -0.0189694      8.94606e-06     0.000562023
                     0.000448245     0.000670208      3.24286e-05     0.000568086         0.859614      -0.0504882
5.001                   0.807495      -0.0571175       0.00634393      -0.0110715      0.000465684     0.000664413
                      0.00638016      -0.0110441         0.788496      -0.0189859      1.69449e-05     0.000562768
                     0.000460605     0.000662451      4.05538e-05     0.000567413         0.859344      -0.0509505
5.002                   0.807153       -0.057243       0.00626309      -0.0111112      0.000477984     0.000656103
                      0.00630065      -0.0110862         0.788479      -0.0190032      2.49838e-05      0.00056344
                     0.000472821     0.000654457      4.86366e-05     0.000566672         0.859072      -0.0514115
5.003                    0.80681      -0.0573662        0.0061823      -0.0111505      0.000490115     0.000647557
                      0.00622101      -0.0111281         0.788459      -0.0190212      3.30646e-05     0.000564035
                     0.000484887      0.00064623      5.66793e-05     0.000565865         0.858796      -0.0518712
5.004                   0.806465      -0.0574871       0.00610154      -0.0111896      0.000502074     0.000638777
                      0.00614125      -0.0111698         0.788437      -0.0190398      4.11885e-05     0.000564551
                       0.0004968     0.000637772      6.46851e-05     0.000564995         0.858518      -0.0523297
5.005                   0.806119      -0.0576055       0.00602081      -0.0112285      0.000513854     0.000629769
                      0.00606134      -0.0112113         0.788413      -0.0190591      4.93567e-05     0.000564987
                     0.000508553     0.000629085      7.26565e-05     0.000564064         0.858236      -0.0527869
5.006                    0.80577      -0.0577216        0.0059401      -0.0112671      0.000525451     0.000620536
                       0.0059813      -0.0112526         0.788388      -0.0190789      5.75704e-05     0.000565339
                     0.000520144     0.000620173      8.05966e-05     0.000563073         0.857952      -0.0532428
5.007                    0.80542      -0.0578352       0.00585941      -0.0113055      0.000536862     0.000611082
                      0.00590109      -0.0112937          0.78836      -0.0190993      6.58305e-05     0.000565605
                     0.000531566      0.00061104      8.85086e-05     0.000562025         0.857666      -0.0536974
5.008                   0.805069      -0.0579464       0.00577873      -0.0113437       0.00054808     0.000601413
                      0.00582073      -0.0113345          0.78833      -0.0191201      7.41379e-05     0.000565782
                     0.000542815     0.000601687      9.63954e-05     0.000560921         0.857376      -0.0541508
5.009                   0.804715      -0.0580552       0.00569804      -0.0113816      0.000559103     0.000591532
                       0.0057402      -0.0113751         0.788298      -0.0191413      8.24932e-05     0.000565868
                     0.000553887      0.00059212       0.00010426     0.000559761         0.857084      -0.0546028
5.01                     0.80436      -0.0581614       0.00561734      -0.0114194      0.000569925     0.000581445
                      0.00565949      -0.0114156         0.788264      -0.0191629      9.08969e-05      0.00056586
                     0.000564778     0.000582341      0.000112106     0.000558547         0.856789      -0.0550535
5.011                   0.804004      -0.0582651       0.00553663       -0.011457      0.000580543     0.000571155
                       0.0055786      -0.0114558         0.788229      -0.0191847      9.93494e-05     0.000565754
                     0.000575482     0.000572354      0.000119937     0.000557278         0.856491      -0.0555029
5.012                   0.803645      -0.0583663       0.00545587      -0.0114944      0.000590954     0.000560668
                      0.00549751      -0.0114958         0.788191      -0.0192069      0.000107851     0.000565548
                     0.000585995     0.000562163      0.000127756     0.000555955          0.85619      -0.0559509
5.013                   0.803285       -0.058465       0.00537508      -0.0115316      0.000601152     0.000549989
                      0.00541623      -0.0115356         0.788151      -0.0192292      0.000116401     0.000565238
                     0.000596314     0.000551771      0.000135565     0.000554578         0.855886      -0.0563976
5.014                   0.802924       -0.058561       0.00529423      -0.0115687      0.000611134     0.000539122
                      0.00533475      -0.0115752         0.788108      -0.0192516      0.000125001     0.000564821
                     0.000606433     0.000541183      0.000143369     0.000553147          0.85558       -0.056843
5.015                    0.80256      -0.0586545       0.00521331      -0.0116057      0.000620898     0.000528072
                      0.00525305      -0.0116145         0.788064      -0.0192742      0.000133648     0.000564293
                     0.000616349     0.000530402      0.000151169      0.00055166         0.855271       -0.057287
5.016                   0.802196      -0.0587453       0.00513232      -0.0116425      0.000630439     0.000516846
                      0.00517113      -0.0116537         0.788018      -0.0192968      0.000142344     0.000563652
                     0.000626058     0.000519434      0.000158971     0.000550118         0.854959      -0.0577297
5.017                   0.801829      -0.0588334       0.00505124      -0.0116791      0.000639754     0.000505447
                      0.00508898      -0.0116926          0.78797      -0.0193194      0.000151087     0.000562895
                     0.000635555     0.000508282      0.000166775     0.000548518         0.854644       -0.058171
5.018                   0.801461      -0.0589189       0.00497004      -0.0117157       0.00064884     0.000493881
                       0.0050066      -0.0117314          0.78792       -0.019342      0.000159876     0.000562016
                     0.000644837      0.00049695      0.000174586     0.000546859         0.854327      -0.0586109
5.019                   0.801092      -0.0590016       0.00488873      -0.0117521      0.000657694     0.000482153
                      0.00492398      -0.0117699         0.787867      -0.0193645       0.00016871     0.000561014
                     0.000653899     0.000485444      0.000182405      0.00054514         0.854006      -0.0590495
5.02                    0.800721      -0.0590816       0.00480728      -0.0117884      0.000666314     0.000470269
                       0.0048411      -0.0118082         0.787813      -0.0193867      0.000177588     0.000559885
                     0.000662739     0.000473768      0.000190237     0.000543358         0.853683      -0.0594866
5.021                   0.800348      -0.0591588       0.00472569      -0.0118247      0.000674696     0.000458234
                      0.00475797      -0.0118464         0.787756      -0.0194088      0.000186509     0.000558625
                     0.000671352     0.000461926      0.000198082     0.000541513         0.853357      -0.0599223
5.022                   0.799974      -0.0592331       0.00464393      -0.0118608      0.000682838     0.000446054
                      0.00467457      -0.0118843         0.787698      -0.0194307       0.00019547     0.000557231
                     0.000679736     0.000449925      0.000205944       0.0005396         0.853028      -0.0603567
5.023                   0.799599      -0.0593047         0.004562      -0.0118968      0.000690737     0.000433734
                       0.0045909       -0.011922         0.787638      -0.0194522       0.00020447     0.000555699
                     0.000687886     0.000437767      0.000213825     0.000537618         0.852697      -0.0607895
5.024                   0.799222      -0.0593734       0.00447986      -0.0119328      0.000698391     0.000421279
                      0.00450695      -0.0119594         0.787575      -0.0194734      0.000213507     0.000554027
                     0.000695799      0.00042546      0.000221726     0.000535563         0.852362       -0.061221
5.025                   0.798844      -0.0594392       0.00439752      -0.0119686      0.000705799     0.000408696
                      0.00442271      -0.0119967         0.787511      -0.0194942      0.000222579      0.00055221
                     0.000703473     0.000413007       0.00022965     0.000533433         0.852025       -0.061651
5.026                   0.798464       -0.059502       0.00431495      -0.0120044      0.000712957      0.00039599
                      0.00433818      -0.0120338         0.787445      -0.0195146      0.000231682     0.000550246
                     0.000710904     0.000400415      0.000237598     0.000531225         0.851685      -0.0620795
5.027                   0.798083      -0.0595619       0.00423213      -0.0120401      0.000719864     0.000383166
                      0.00425333      -0.0120706         0.787376      -0.0195345      0.000240816     0.000548132
                     0.000718089     0.000387688      0.000245572     0.000528936         0.851342      -0.0625066
5.028                   0.797701      -0.0596188       0.00414906      -0.0120757      0.000726519      0.00037023
                      0.00416817      -0.0121073         0.787306      -0.0195538      0.000249976     0.000545863
                     0.000725027     0.000374832      0.000253573      0.00052656         0.850997      -0.0629322
5.029                   0.797317      -0.0596727       0.00406569      -0.0121113       0.00073292     0.000357188
                      0.00408269      -0.0121437         0.787234      -0.0195726       0.00025916     0.000543438
                     0.000731713     0.000361853      0.000261601     0.000524096         0.850648      -0.0633563
5.03                    0.796932      -0.0597235       0.00398204      -0.0121467      0.000739066     0.000344046
                      0.00399687      -0.0121799          0.78716      -0.0195907      0.000268365     0.000540853
                     0.000738146     0.000348757      0.000269658      0.00052154         0.850297      -0.0637789
5.031                   0.796546      -0.0597713       0.00389807      -0.0121821      0.000744954     0.000330809
                      0.00391072      -0.0122159         0.787084      -0.0196082      0.000277587     0.000538106
                     0.000744323     0.000335548      0.000277744     0.000518887         0.849943         -0.0642
5.032                   0.796159       -0.059816       0.00381376      -0.0122174      0.000750585     0.000317484
                      0.00382421      -0.0122517         0.787007       -0.019625      0.000286823     0.000535193
                     0.000750243     0.000322232      0.000285859     0.000516133         0.849586      -0.0646195
5.033                    0.79577      -0.0598575        0.0037291      -0.0122527      0.000755958     0.000304075
                      0.00373734      -0.0122873         0.786927       -0.019641      0.000296069     0.000532112
                     0.000755903     0.000308817      0.000294003     0.000513275         0.849226      -0.0650376
5.034                   0.795381      -0.0598959       0.00364407      -0.0122878       0.00076107     0.000290589
                       0.0036501      -0.0123226         0.786846      -0.0196563      0.000305323     0.000528861
                     0.000761301     0.000295307      0.000302177     0.000510308         0.848864       -0.065454
5.035                    0.79499       -0.059931       0.00355866      -0.0123229      0.000765923     0.000277032
                      0.00356249      -0.0123578         0.786763      -0.0196707      0.000314579     0.000525437
                     0.000766436     0.000281708      0.000310379     0.000507228         0.848498       -0.065869
5.036                   0.794598       -0.059963       0.00347283      -0.0123579      0.000770515     0.000263408
                      0.00347447      -0.0123926         0.786678      -0.0196843      0.000323833     0.000521837
                     0.000771306     0.000268027      0.000318608     0.000504031          0.84813      -0.0662823
5.037                   0.794205      -0.0599917       0.00338659      -0.0123927      0.000774846     0.000249725
                      0.00338606      -0.0124273         0.786592      -0.0196969      0.000333083      0.00051806
                     0.000775911      0.00025427      0.000326865     0.000500713         0.847759      -0.0666941
5.038                   0.793812      -0.0600172       0.00329989      -0.0124275      0.000778916     0.000235987
                      0.00329724      -0.0124618         0.786504      -0.0197087      0.000342322     0.000514104
                     0.000780248     0.000240441      0.000335146     0.000497269         0.847386      -0.0671042
5.039                   0.793417      -0.0600393       0.00321274      -0.0124622      0.000782724       0.0002222
                        0.003208       -0.012496         0.786414      -0.0197195      0.000351548     0.000509967
                     0.000784318     0.000226549      0.000343451     0.000493695         0.847009      -0.0675128
5.04                    0.793021      -0.0600582        0.0031251      -0.0124968      0.000786272     0.000208371
                      0.00311832      -0.0125299         0.786322      -0.0197292      0.000360755     0.000505647
                     0.000788118     0.000212599      0.000351778     0.000489986          0.84663      -0.0679197
5.041                   0.792625      -0.0600737       0.00303697      -0.0125312      0.000789559     0.000194504
                       0.0030282      -0.0125636         0.786229       -0.019738      0.000369939     0.000501142
                      0.00079165     0.000198596      0.000360125      0.00048614         0.846248       -0.068325
5.042                   0.792228      -0.0600858       0.00294832      -0.0125655      0.000792585     0.000180604
                      0.00293763      -0.0125971         0.786134      -0.0197457      0.000379094     0.000496452
                     0.000794911     0.000184548      0.000368489      0.00048215         0.845863      -0.0687287
5.043                    0.79183      -0.0600945       0.00285913      -0.0125997      0.000795352     0.000166679
                      0.00284659      -0.0126303         0.786038      -0.0197522      0.000388218     0.000491575
                     0.000797903      0.00017046      0.000376867     0.000478014         0.845475      -0.0691307
5.044                   0.791431      -0.0600999       0.00276939      -0.0126337       0.00079786     0.000152733
                      0.00275507      -0.0126633          0.78594      -0.0197577      0.000397303     0.000486511
                     0.000800624     0.000156339      0.000385257     0.000473727         0.845085      -0.0695311
5.045                   0.791032      -0.0601018       0.00267909      -0.0126675       0.00080011     0.000138771
                      0.00266306       -0.012696         0.785841       -0.019762      0.000406347     0.000481258
                     0.000803076      0.00014219      0.000393656     0.000469286         0.844691      -0.0699297
5.046                   0.790632      -0.0601002        0.0025882      -0.0127012      0.000802102     0.000124799
                      0.00257055      -0.0127284          0.78574      -0.0197651      0.000415342     0.000475815
                     0.000805258      0.00012802      0.000402059     0.000464686         0.844295      -0.0703267
5.047                   0.790232      -0.0600952        0.0024967      -0.0127346      0.000803839     0.000110823
                      0.00247753      -0.0127605         0.785638      -0.0197669      0.000424286     0.000470183
                     0.000807172     0.000113835      0.000410464     0.000459923         0.843896       -0.070722
5.048                   0.789831      -0.0600868       0.00240458      -0.0127679      0.000805321     9.68467e-05
                      0.00238398      -0.0127924         0.785535      -0.0197676      0.000433171     0.000464361
                     0.000808817     9.96411e-05      0.000418866     0.000454995         0.843495      -0.0711155
5.049                   0.789429      -0.0600748       0.00231183       -0.012801      0.000806549     8.28764e-05
                       0.0022899      -0.0128239          0.78543      -0.0197669      0.000441994     0.000458349
                     0.000810194     8.54441e-05      0.000427261     0.000449897          0.84309      -0.0715074
5.05                    0.789027      -0.0600594       0.00221843      -0.0128338      0.000807526     6.89166e-05
                      0.00219526      -0.0128552         0.785323       -0.019765       0.00045075     0.000452147
                     0.000811306       7.125e-05      0.000435645     0.000444627         0.842683      -0.0718975
5.051                   0.788625      -0.0600404       0.00212436      -0.0128663      0.000808253     5.49728e-05
                      0.00210008      -0.0128861         0.785216      -0.0197617      0.000459432     0.000445756
                     0.000812153     5.70648e-05      0.000444013     0.000439182         0.842273      -0.0722858
5.052                   0.788223      -0.0600179       0.00202961      -0.0128986      0.000808731     4.10495e-05
                      0.00200431      -0.0129168         0.785107      -0.0197571      0.000468036     0.000439175
                     0.000812736     4.28943e-05       0.00045236     0.000433557          0.84186      -0.0726724
5.053                    0.78782      -0.0599919       0.00193416      -0.0129307      0.000808963     2.71516e-05
                      0.00190796      -0.0129471         0.784997      -0.0197512      0.000476557     0.000432406
                     0.000813057     2.87442e-05      0.000460682     0.000427752         0.841444      -0.0730572
5.054                   0.787417      -0.0599623         0.001838      -0.0129624       0.00080895     1.32841e-05
                      0.00181102       -0.012977         0.784885      -0.0197438      0.000484989      0.00042545
                     0.000813119     1.46203e-05      0.000468973     0.000421762         0.841026      -0.0734402
5.055                   0.787014      -0.0599292       0.00174111      -0.0129938      0.000808696    -5.48632e-07
                      0.00171347      -0.0130066         0.784773       -0.019735      0.000493328     0.000418307
                     0.000812922     5.28203e-07      0.000477228     0.000415587         0.840605      -0.0738214
5.056                   0.786611      -0.0598925       0.00164349      -0.0130248      0.000808201     -1.4342e-05
                      0.00161529      -0.0130358         0.784659      -0.0197248      0.000501568     0.000410978
                     0.000812469    -1.35267e-05       0.00048544     0.000409223         0.840181      -0.0742008
5.057                   0.786208      -0.0598523       0.00154513      -0.0130555      0.000807469    -2.80916e-05
                      0.00151649      -0.0130647         0.784544      -0.0197132      0.000509704     0.000403466
                     0.000811763    -2.75389e-05      0.000493606     0.000402669         0.839754      -0.0745784
5.058                   0.785805      -0.0598086         0.001446      -0.0130859      0.000806502     -4.1793e-05
                      0.00141704      -0.0130932         0.784428         -0.0197      0.000517731     0.000395771
                     0.000810806    -4.15032e-05      0.000501718     0.000395923         0.839325      -0.0749542
5.059                   0.785402      -0.0597613       0.00134611      -0.0131158      0.000805302    -5.54421e-05
                      0.00131694      -0.0131212         0.784311      -0.0196854      0.000525644     0.000387896
                       0.0008096    -5.54145e-05       0.00050977     0.000388985         0.838893      -0.0753281
5.06                    0.784999      -0.0597104       0.00124543      -0.0131453      0.000803872     -6.9035e-05
                      0.00121618      -0.0131489         0.784193      -0.0196693      0.000533439     0.000379842
                     0.000808149    -6.92674e-05      0.000517757     0.000381852         0.838458      -0.0757001
5.061                   0.784597       -0.059656       0.00114396      -0.0131743      0.000802215    -8.25674e-05
                      0.00111475      -0.0131761         0.784074      -0.0196516      0.000541109     0.000371612
                     0.000806455     -8.3058e-05      0.000525673     0.000374524          0.83802      -0.0760703
5.062                   0.784194      -0.0595981       0.00104169      -0.0132029      0.000800334     -9.6036e-05
                      0.00101262      -0.0132028         0.783954      -0.0196324      0.000548652     0.000363207
                     0.000804521    -9.67803e-05      0.000533511     0.000367001         0.837579      -0.0764386
5.063                   0.783792      -0.0595367      0.000938621       -0.013231      0.000798231    -0.000109436
                     0.000909801      -0.0132291         0.783833      -0.0196117      0.000556061     0.000354631
                      0.00080235     -0.00011043      0.000541264     0.000359281         0.837136       -0.076805
5.064                   0.783391      -0.0594717      0.000834738      -0.0132586       0.00079591    -0.000122765
                     0.000806278      -0.0132549         0.783711      -0.0195893      0.000563332     0.000345886
                     0.000799947    -0.000124003      0.000548927     0.000351366          0.83669      -0.0771695
5.065                   0.782989      -0.0594033      0.000730027      -0.0132856      0.000793374     -0.00013602
                     0.000702044      -0.0132802         0.783588      -0.0195654      0.000570461     0.000336974
                     0.000797314    -0.000137495      0.000556492     0.000343255         0.836241      -0.0775321
5.066                   0.782589      -0.0593313      0.000624494      -0.0133121      0.000790625    -0.000149196
                     0.000597079       -0.013305         0.783464      -0.0195398      0.000577443     0.000327899
                     0.000794454    -0.000150903      0.000563954     0.000334949          0.83579      -0.0778928
5.067                   0.782189      -0.0592559      0.000518124       -0.013338      0.000787667     -0.00016229
                     0.000491391      -0.0133292          0.78334      -0.0195127      0.000584274     0.000318663
                     0.000791372     -0.00016422      0.000571306     0.000326448         0.835336      -0.0782515
5.068                   0.781789       -0.059177       0.00041092      -0.0133632      0.000784503      -0.0001753
                     0.000384954      -0.0133529         0.783214      -0.0194838      0.000590949      0.00030927
                     0.000788071    -0.000177445      0.000578541     0.000317754         0.834879      -0.0786083
5.069                    0.78139      -0.0590947      0.000302878      -0.0133879      0.000781137    -0.000188223
                     0.000277771       -0.013376         0.783088      -0.0194534      0.000597464     0.000299723
                     0.000784556    -0.000190573      0.000585653     0.000308868         0.834419      -0.0789631
5.07                    0.780992      -0.0590089      0.000193995      -0.0134118      0.000777571    -0.000201056
                     0.000169838      -0.0133985         0.782962      -0.0194212      0.000603816     0.000290025
                     0.000780829      -0.0002036      0.000592635     0.000299791         0.833957       -0.079316
5.071                   0.780594      -0.0589197      8.42659e-05      -0.0134351      0.000773809    -0.000213797
                     6.11394e-05      -0.0134204         0.782834      -0.0193874          0.00061     0.000280181
                     0.000776895    -0.000216525      0.000599481     0.000290526         0.833491      -0.0796669
5.072                   0.780198      -0.0588272     -2.63031e-05      -0.0134577      0.000769854    -0.000226442
                    -4.83241e-05      -0.0134417         0.782706      -0.0193519      0.000616013     0.000270193
                     0.000772758    -0.000229343      0.000606184     0.000281074         0.833023      -0.0800157
5.073                   0.779802      -0.0587313     -0.000137725      -0.0134795       0.00076571    -0.000238991
                    -0.000158565      -0.0134623         0.782577      -0.0193147      0.000621851     0.000260065
                     0.000768422    -0.000242053      0.000612738     0.000271438         0.832553      -0.0803626
5.074                   0.779407      -0.0586321     -0.000249986      -0.0135005      0.000761379    -0.000251439
                    -0.000269577      -0.0134822         0.782448      -0.0192758      0.000627511     0.000249802
                     0.000763891    -0.000254649      0.000619137     0.000261622         0.832079      -0.0807075
5.075                   0.779013      -0.0585296     -0.000363089      -0.0135208      0.000756866    -0.000263786
                    -0.000381374      -0.0135013         0.782318      -0.0192351      0.000632988     0.000239408
                      0.00075917    -0.000267131      0.000625374     0.000251627         0.831603      -0.0810503
5.076                    0.77862      -0.0584237      -0.00047703      -0.0135402      0.000752174    -0.000276029
                     -0.00049396      -0.0135198         0.782187      -0.0191927       0.00063828     0.000228885
                     0.000754262    -0.000279497      0.000631444     0.000241456         0.831124       -0.081391
5.077                   0.778228      -0.0583147     -0.000591809      -0.0135588      0.000747305    -0.000288168
                    -0.000607326      -0.0135375         0.782056      -0.0191486      0.000643384      0.00021824
                     0.000749172    -0.000291743       0.00063734     0.000231115         0.830643      -0.0817298
5.078                   0.777837      -0.0582024     -0.000707422      -0.0135765      0.000742263    -0.000300199
                    -0.000721483      -0.0135544         0.781925      -0.0191026      0.000648297     0.000207474
                     0.000743903    -0.000303869      0.000643056     0.000220605         0.830158      -0.0820665
5.079                   0.777448       -0.058087     -0.000823859      -0.0135933      0.000737053    -0.000312122
                    -0.000836429      -0.0135705         0.781793      -0.0190549      0.000653016     0.000196594
                      0.00073846    -0.000315873      0.000648588     0.000209932         0.829671       -0.082401
5.08                    0.777059      -0.0579684      -0.00094112      -0.0136092      0.000731676    -0.000323935
                    -0.000952168      -0.0135858          0.78166      -0.0190055      0.000657538     0.000185604
                     0.000732848    -0.000327752      0.000653928     0.000199099         0.829182      -0.0827335
5.081                   0.776672      -0.0578467      -0.00105919      -0.0136241      0.000726136    -0.000335638
                      -0.0010687      -0.0136002         0.781527      -0.0189542       0.00066186     0.000174507
                      0.00072707    -0.000339505      0.000659072      0.00018811         0.828689      -0.0830639
5.082                   0.776286      -0.0577219      -0.00117808       -0.013638      0.000720436    -0.000347229
                     -0.00118602      -0.0136138         0.781394       -0.018901      0.000665981     0.000163308
                      0.00072113    -0.000351132      0.000664015     0.000176971         0.828194      -0.0833922
5.083                   0.775901      -0.0575941      -0.00129776      -0.0136509       0.00071458    -0.000358706
                     -0.00130412      -0.0136264         0.781261      -0.0188461      0.000669898     0.000152012
                     0.000715033    -0.000362632       0.00066875     0.000165686         0.827696      -0.0837184
5.084                   0.775518      -0.0574632      -0.00141823      -0.0136628       0.00070857     -0.00037007
                     -0.00142301      -0.0136381         0.781127      -0.0187894      0.000673609     0.000140623
                     0.000708782    -0.000374002      0.000673275      0.00015426         0.827195      -0.0840425
5.085                   0.775136      -0.0573294      -0.00153948      -0.0136737       0.00070241     -0.00038132