! TOUCHSTONE file generated by CST MICROWAVE STUDIO
! Date and time: Wed Sep 23 10:22:10 2020
! Project name: Baby Lung.cst
! Header version: 2018
! Port assignment regex: !\s*Touchstone port\s*([0-9]+)\s*=\s*(CST MWS port|CST DS port)\s*([0-9]+|Zmin|Zmax)\s*\(\"(.*)\"\)(\s*mode\s*([0-9]+))?.*
! Touchstone port assignment:
! Touchstone port 1 = CST MWS port 1 ("")
! Touchstone port 2 = CST MWS port 2 ("")
! Touchstone port 3 = CST MWS port 3 ("")
# GHz S RI R 50
5                        0.78074      -0.0637481       -0.0128881      -0.0161142       0.00924916      -0.0107894
                      -0.0128839      -0.0161275         0.755517      -0.0462176          0.02261     -0.00579519
                      0.00925242      -0.0107936        0.0226391     -0.00581368         0.763284       0.0701286
5.001                   0.780223      -0.0637563        -0.013167      -0.0159577       0.00910261      -0.0108985
                      -0.0131636      -0.0159712         0.755191      -0.0457732        0.0225146     -0.00612535
                      0.00910563      -0.0109028        0.0225423     -0.00614515         0.764476       0.0701337
5.002                   0.779702      -0.0637587       -0.0134443      -0.0157958       0.00895511      -0.0110058
                      -0.0134416      -0.0158093         0.754871      -0.0453242        0.0224141     -0.00645363
                      0.00895789      -0.0110102        0.0224405     -0.00647466          0.76566       0.0701219
5.003                   0.779179      -0.0637554       -0.0137199      -0.0156284       0.00880667      -0.0111114
                      -0.0137179      -0.0156419         0.754558      -0.0448709        0.0223088     -0.00677996
                      0.00880919      -0.0111159        0.0223337     -0.00680213         0.766835       0.0700937
5.004                   0.778652      -0.0637462       -0.0139935      -0.0154556        0.0086573      -0.0112152
                      -0.0139922      -0.0154691         0.754251      -0.0444132        0.0221986     -0.00710427
                      0.00865956      -0.0112198         0.022222     -0.00712748         0.768001       0.0700493
5.005                   0.778124       -0.063731       -0.0142651      -0.0152774       0.00850699      -0.0113173
                      -0.0142645      -0.0152908         0.753951      -0.0439513        0.0220836     -0.00742647
                      0.00850899       -0.011322        0.0221055     -0.00745064         0.769157        0.069989
5.006                   0.777592      -0.0637098       -0.0145345      -0.0150937       0.00835575      -0.0114176
                      -0.0145347      -0.0151071         0.753657      -0.0434854        0.0219638      -0.0077465
                      0.00835749      -0.0114224        0.0219841     -0.00777153         0.770304       0.0699132
5.007                   0.777058      -0.0636825       -0.0148017      -0.0149048       0.00820359      -0.0115162
                      -0.0148026       -0.014918          0.75337      -0.0430157        0.0218392     -0.00806428
                      0.00820506      -0.0115211         0.021858     -0.00809008         0.771442       0.0698221
5.008                   0.776521       -0.063649       -0.0150664      -0.0147104       0.00805052       -0.011613
                       -0.015068      -0.0147235         0.753089      -0.0425422        0.0217099     -0.00837974
                      0.00805172       -0.011618        0.0217271     -0.00840622          0.77257       0.0697161
5.009                   0.775982      -0.0636092       -0.0153287      -0.0145107       0.00789654      -0.0117081
                      -0.0153309      -0.0145236         0.752816      -0.0420651         0.021576     -0.00869282
                      0.00789747      -0.0117131        0.0215916     -0.00871988         0.773688       0.0695955
5.01                    0.775441      -0.0635631       -0.0155883      -0.0143058       0.00774165      -0.0118015
                      -0.0155912      -0.0143184         0.752549      -0.0415845        0.0214375     -0.00900343
                      0.00774232      -0.0118065        0.0214515     -0.00903099         0.774797       0.0694606
5.011                   0.774898      -0.0635106       -0.0158451      -0.0140955       0.00758586      -0.0118931
                      -0.0158487      -0.0141079          0.75229      -0.0411007        0.0212945     -0.00931151
                      0.00758626      -0.0118981        0.0213068     -0.00933947         0.775895       0.0693116
5.012                   0.774352      -0.0634516        -0.016099      -0.0138801       0.00742917      -0.0119829
                      -0.0161033      -0.0138921         0.752037      -0.0406138         0.021147       -0.009617
                      0.00742931      -0.0119879        0.0211577     -0.00964526         0.776983        0.069149
5.013                   0.773805       -0.063386         -0.01635      -0.0136595        0.0072716       -0.012071
                      -0.0163548      -0.0136712         0.751792      -0.0401239         0.020995     -0.00991982
                      0.00727147      -0.0120759        0.0210041     -0.00994831         0.778061       0.0689729
5.014                   0.773255      -0.0633139       -0.0165978      -0.0134337       0.00711314      -0.0121573
                      -0.0166032       -0.013445         0.751554      -0.0396312        0.0208386      -0.0102199
                      0.00711274      -0.0121622        0.0208461      -0.0102485         0.779129       0.0687837
5.015                   0.772704       -0.063235       -0.0168423      -0.0132028       0.00695379      -0.0122419
                      -0.0168483      -0.0132138         0.751323      -0.0391358        0.0206779      -0.0105172
                      0.00695315      -0.0122467        0.0206838      -0.0105459         0.780187       0.0685816
5.016                   0.772152      -0.0631494       -0.0170835      -0.0129669       0.00679358      -0.0123246
                        -0.01709      -0.0129775           0.7511       -0.038638        0.0205129      -0.0108117
                      0.00679268      -0.0123294        0.0205172      -0.0108403         0.781234        0.068367
5.017                   0.771597       -0.063057       -0.0173212      -0.0127261       0.00663249      -0.0124056
                      -0.0173282      -0.0127362         0.750884       -0.038138        0.0203437      -0.0111032
                      0.00663134      -0.0124102        0.0203465      -0.0111317          0.78227       0.0681401
5.018                   0.771042      -0.0629578       -0.0175553      -0.0124802       0.00647054      -0.0124847
                      -0.0175627      -0.0124899         0.750676      -0.0376357        0.0201704      -0.0113917
                      0.00646915      -0.0124893        0.0201716        -0.01142         0.783296       0.0679013
5.019                   0.770485      -0.0628516       -0.0177857      -0.0122296       0.00630773       -0.012562
                      -0.0177936      -0.0122387         0.750476      -0.0371316        0.0199929      -0.0116772
                      0.00630611      -0.0125665        0.0199926      -0.0117053         0.784312       0.0676507
5.02                    0.769927      -0.0627384       -0.0180122      -0.0119741       0.00614408      -0.0126376
                      -0.0180205      -0.0119827         0.750283      -0.0366257        0.0198114      -0.0119596
                      0.00614223      -0.0126419        0.0198097      -0.0119873         0.785317       0.0673887
5.021                   0.769367      -0.0626183       -0.0182348      -0.0117138       0.00597958      -0.0127112
                      -0.0182434       -0.011722         0.750097      -0.0361181        0.0196259      -0.0122389
                      0.00597751      -0.0127155        0.0196227      -0.0122661         0.786311       0.0671155
5.022                   0.768807       -0.062491       -0.0184533      -0.0114489       0.00581424      -0.0127831
                      -0.0184623      -0.0114565         0.749919      -0.0356092        0.0194365      -0.0125149
                      0.00581197      -0.0127872        0.0194319      -0.0125417         0.787294       0.0668314
5.023                   0.768246      -0.0623566       -0.0186676      -0.0111794       0.00564808      -0.0128531
                       -0.018677      -0.0111865         0.749749       -0.035099        0.0192432      -0.0127877
                       0.0056456       -0.012857        0.0192373      -0.0128139         0.788266       0.0665367
5.024                   0.767684      -0.0622151       -0.0188777      -0.0109054        0.0054811      -0.0129212
                      -0.0188873      -0.0109119         0.749587      -0.0345878        0.0190462      -0.0130571
                      0.00547842      -0.0129249         0.019039      -0.0130827         0.789228       0.0662315
5.025                   0.767122      -0.0620664       -0.0190833       -0.010627        0.0053133      -0.0129874
                      -0.0190932      -0.0106329         0.749433      -0.0340757        0.0188454      -0.0133232
                      0.00531045       -0.012991        0.0188369      -0.0133481         0.790179       0.0659163
5.026                   0.766559      -0.0619104       -0.0192845      -0.0103441       0.00514471      -0.0130517
                      -0.0192946      -0.0103494         0.749286      -0.0335628        0.0186409      -0.0135859
                      0.00514168      -0.0130551        0.0186312        -0.01361         0.791119       0.0655912
5.027                   0.765996      -0.0617472        -0.019481       -0.010057       0.00497533      -0.0131141
                      -0.0194913      -0.0100618         0.749147      -0.0330495        0.0184329       -0.013845
                      0.00497214      -0.0131173         0.018422      -0.0138684         0.792048       0.0652564
5.028                   0.765432      -0.0615766       -0.0196729     -0.00976575       0.00480516      -0.0131746
                      -0.0196834     -0.00976987         0.749015      -0.0325358        0.0182213      -0.0141007
                      0.00480182      -0.0131776        0.0182093      -0.0141232         0.792966       0.0649123
5.029                   0.764869      -0.0613987       -0.0198599     -0.00947035       0.00463422      -0.0132331
                      -0.0198705     -0.00947388         0.748892      -0.0320219        0.0180062      -0.0143528
                      0.00463074       -0.013236        0.0179932      -0.0143744         0.793874        0.064559
5.03                    0.764305      -0.0612134       -0.0200421     -0.00917094       0.00446253      -0.0132897
                      -0.0200528     -0.00917387         0.748776       -0.031508        0.0177877      -0.0146013
                      0.00445893      -0.0132923        0.0177738       -0.014622          0.79477       0.0641969
5.031                   0.763742      -0.0610207       -0.0202192     -0.00886762       0.00429009      -0.0133443
                        -0.02023     -0.00886996         0.748668      -0.0309944        0.0175659      -0.0148461
                      0.00428637      -0.0133467        0.0175511      -0.0148658         0.795656        0.063826
5.032                   0.763179      -0.0608206       -0.0203913     -0.00856049       0.00411692       -0.013397
                      -0.0204021     -0.00856222         0.748567      -0.0304811        0.0173409      -0.0150872
                      0.00411309      -0.0133992        0.0173252      -0.0151059          0.79653       0.0634467
5.033                   0.762616       -0.060613       -0.0205582     -0.00824962       0.00394303      -0.0134476
                       -0.020569     -0.00825078         0.748475      -0.0299683        0.0171126      -0.0153246
                      0.00393912      -0.0134495        0.0170961      -0.0153423         0.797394       0.0630592
5.034                   0.762054       -0.060398       -0.0207198     -0.00793516       0.00376843      -0.0134962
                      -0.0207305     -0.00793572         0.748389      -0.0294562        0.0168812      -0.0155583
                      0.00376444      -0.0134979         0.016864      -0.0155749         0.798247       0.0626637
5.035                   0.761493      -0.0601756       -0.0208761     -0.00761717       0.00359315      -0.0135427
                      -0.0208867     -0.00761716         0.748312       -0.028945        0.0166468      -0.0157881
                      0.00358909      -0.0135442        0.0166289      -0.0158036         0.799089       0.0622605
5.036                   0.760932      -0.0599456       -0.0210269     -0.00729578       0.00341718      -0.0135872
                      -0.0210375      -0.0072952         0.748242      -0.0284349        0.0164094       -0.016014
                      0.00341308      -0.0135885        0.0163909      -0.0160284          0.79992       0.0618496
5.037                   0.760373      -0.0597081       -0.0211722      -0.0069711       0.00324057      -0.0136297
                      -0.0211826     -0.00696996         0.748179       -0.027926         0.016169      -0.0162361
                      0.00323643      -0.0136307          0.01615      -0.0162494          0.80074       0.0614315
5.038                   0.759814      -0.0594632       -0.0213119     -0.00664323       0.00306331        -0.01367
                      -0.0213222     -0.00664154         0.748124      -0.0274184        0.0159259      -0.0164543
                      0.00305914      -0.0136708        0.0159064      -0.0164664          0.80155       0.0610062
5.039                   0.759257      -0.0592108        -0.021446     -0.00631228       0.00288543      -0.0137082
                       -0.021456     -0.00631007         0.748076      -0.0269125        0.0156799      -0.0166685
                      0.00288125      -0.0137088        0.0156601      -0.0166795         0.802348       0.0605739
5.04                    0.758701      -0.0589508       -0.0215743     -0.00597838       0.00270694      -0.0137443
                      -0.0215841     -0.00597565         0.748036      -0.0264082        0.0154313      -0.0168787
                      0.00270276      -0.0137447        0.0154111      -0.0168885         0.803136        0.060135
5.041                   0.758147      -0.0586834       -0.0216967     -0.00564163       0.00252787      -0.0137783
                      -0.0217064      -0.0056384         0.748003      -0.0259058          0.01518       -0.017085
                      0.00252371      -0.0137784        0.0151595      -0.0170936         0.803913       0.0596895
5.042                   0.757594      -0.0584085       -0.0218133     -0.00530216       0.00234824      -0.0138101
                      -0.0218227     -0.00529844         0.747977      -0.0254054        0.0149262      -0.0172872
                       0.0023441        -0.01381        0.0149055      -0.0172946          0.80468       0.0592376
5.043                   0.757043      -0.0581261        -0.021924     -0.00496009       0.00216806      -0.0138398
                      -0.0219331      -0.0049559         0.747958      -0.0249072        0.0146698      -0.0174853
                      0.00216396      -0.0138394         0.014649      -0.0174916         0.805435       0.0587796
5.044                   0.756494      -0.0578362       -0.0220287     -0.00461552       0.00198736      -0.0138672
                      -0.0220374      -0.0046109         0.747946      -0.0244113        0.0144111      -0.0176794
                      0.00198331      -0.0138666        0.0143902      -0.0176845         0.806181       0.0583157
5.045                   0.755947      -0.0575389       -0.0221272      -0.0042686       0.00180616      -0.0138924
                      -0.0221357     -0.00426356         0.747941      -0.0239179        0.0141501      -0.0178693
                      0.00180217      -0.0138916        0.0141291      -0.0178733         0.806915        0.057846
5.046                   0.755402      -0.0572342       -0.0222197     -0.00391944       0.00162448      -0.0139154
                      -0.0222278     -0.00391399         0.747943      -0.0234271        0.0138867      -0.0180552
                      0.00162056      -0.0139144        0.0138658       -0.018058         0.807639       0.0573707
5.047                    0.75486       -0.056922        -0.022306     -0.00356818       0.00144234      -0.0139362
                      -0.0223137     -0.00356234         0.747952      -0.0229391        0.0136212      -0.0182369
                      0.00143851       -0.013935        0.0136004      -0.0182386         0.808352         0.05689
5.048                    0.75432      -0.0566025       -0.0223861     -0.00321493       0.00125978      -0.0139547
                      -0.0223934     -0.00320873         0.747967       -0.022454        0.0133535      -0.0184144
                      0.00125605      -0.0139533        0.0133328       -0.018415         0.809055        0.056404
5.049                   0.753782      -0.0562756       -0.0224599     -0.00285981       0.00107681      -0.0139709
                      -0.0224668     -0.00285329         0.747989      -0.0219719        0.0130838      -0.0185877
                      0.00107318      -0.0139693        0.0130633      -0.0185873         0.809748        0.055913
5.05                    0.753248      -0.0559414       -0.0225274     -0.00250298      0.000893461      -0.0139848
                      -0.0225339     -0.00249613         0.748018      -0.0214929        0.0128121      -0.0187569
                     0.000889948      -0.0139831        0.0127919      -0.0187554          0.81043       0.0554171
5.051                   0.752716      -0.0555999       -0.0225885     -0.00214453      0.000709758      -0.0139965
                      -0.0225946      -0.0021374         0.748053      -0.0210173        0.0125385      -0.0189218
                     0.000706373      -0.0139945        0.0125186      -0.0189193         0.811102       0.0549164
5.052                   0.752187      -0.0552511       -0.0226433     -0.00178462      0.000525731      -0.0140058
                      -0.0226489     -0.00177724         0.748094       -0.020545         0.012263      -0.0190825
                     0.000522478      -0.0140036        0.0122435       -0.019079         0.811763       0.0544112
5.053                   0.751661      -0.0548951       -0.0226916     -0.00142337      0.000341408      -0.0140127
                      -0.0226968     -0.00141575         0.748141      -0.0200763        0.0119858       -0.019239
                       0.0003383      -0.0140104        0.0119667      -0.0192345         0.812414       0.0539016
5.054                   0.751138      -0.0545319       -0.0227335     -0.00106091      0.000156818      -0.0140173
                      -0.0227383     -0.00105308         0.748194      -0.0196112        0.0117069      -0.0193913
                     0.000153859      -0.0140149        0.0116882      -0.0193859         0.813055       0.0533877
5.055                   0.750619      -0.0541617       -0.0227689    -0.000697381     -2.80225e-05      -0.0140196
                      -0.0227732     -0.00068937         0.748254      -0.0191499        0.0114263      -0.0195393
                    -3.08145e-05       -0.014017        0.0114081      -0.0195329         0.813686       0.0528697
5.056                   0.750104      -0.0537843       -0.0227978    -0.000332905     -0.000213065      -0.0140194
                      -0.0228017    -0.000324742         0.748319      -0.0186925        0.0111442       -0.019683
                    -0.000215695      -0.0140167        0.0111265      -0.0196758         0.814307       0.0523478
5.057                   0.749592      -0.0533999       -0.0228202      3.2376e-05     -0.000398284      -0.0140169
                      -0.0228236     4.06693e-05         0.748389       -0.018239        0.0108606      -0.0198225
                    -0.000400746      -0.0140141        0.0108435      -0.0198145         0.814918       0.0518221
5.058                   0.749083      -0.0530085        -0.022836     0.000398336     -0.000583662       -0.014012
                      -0.0228389     0.000406735         0.748466      -0.0177895        0.0105755      -0.0199577
                    -0.000585943       -0.014009        0.0105591      -0.0199489         0.815519       0.0512927
5.059                   0.748579      -0.0526102       -0.0228453     0.000764832     -0.000769149      -0.0140046
                      -0.0228477     0.000773311         0.748548      -0.0173442        0.0102892      -0.0200886
                    -0.000771253      -0.0140016        0.0102733      -0.0200791         0.816109       0.0507599
5.06                    0.748079      -0.0522051        -0.022848      0.00113175     -0.000954728      -0.0139948
                        -0.02285      0.00114027         0.748635      -0.0169032        0.0100015      -0.0202153
                    -0.000956641      -0.0139917       0.00998632       -0.020205          0.81669       0.0502236
5.061                   0.747582      -0.0517931       -0.0228442      0.00149893      -0.00114035      -0.0139826
                      -0.0228457      0.00150748         0.748727      -0.0164665        0.0097126      -0.0203377
                     -0.00114208      -0.0139794       0.00969812      -0.0203267         0.817262       0.0496841
5.062                    0.74709      -0.0513745       -0.0228338      0.00186625        -0.001326      -0.0139679
                      -0.0228348       0.0018748         0.748824      -0.0160342       0.00942254      -0.0204558
                     -0.00132753      -0.0139646       0.00940879      -0.0204442         0.817823       0.0491415
5.063                   0.746603      -0.0509491       -0.0228167      0.00223358      -0.00151163      -0.0139508
                      -0.0228173       0.0022421         0.748927      -0.0156065       0.00913141      -0.0205696
                     -0.00151297      -0.0139474       0.00911841      -0.0205575         0.818375        0.048596
5.064                    0.74612      -0.0505172       -0.0227931      0.00260078      -0.00169721      -0.0139312
                      -0.0227932      0.00260925         0.749034      -0.0151833       0.00883925      -0.0206792
                     -0.00169836      -0.0139278       0.00882702      -0.0206665         0.818917       0.0480476
5.065                   0.745641      -0.0500787       -0.0227629      0.00296773      -0.00188271      -0.0139091
                      -0.0227626      0.00297612         0.749146      -0.0147647       0.00854614      -0.0207845
                     -0.00188366      -0.0139057        0.0085347      -0.0207713          0.81945       0.0474965
5.066                   0.745167      -0.0496338       -0.0227262      0.00333428      -0.00206809      -0.0138845
                      -0.0227254      0.00334257         0.749262      -0.0143509       0.00825214      -0.0208855
                     -0.00206884       -0.013881        0.0082415      -0.0208719         0.819973       0.0469428
5.067                   0.744699      -0.0491825       -0.0226829       0.0037003      -0.00225331      -0.0138574
                      -0.0226816      0.00370847         0.749383      -0.0139418       0.00795731      -0.0209823
                     -0.00225386      -0.0138539       0.00794748      -0.0209683         0.820486       0.0463867
5.068                   0.744235      -0.0487249        -0.022633      0.00406566      -0.00243835      -0.0138278
                      -0.0226313      0.00407369         0.749508      -0.0135375       0.00766171      -0.0210748
                      -0.0024387      -0.0138244       0.00765271      -0.0210604         0.820991       0.0458282
5.069                   0.743776      -0.0482611       -0.0225766      0.00443023      -0.00262315      -0.0137957
                      -0.0225745      0.00443809         0.749637      -0.0131382       0.00736542      -0.0211631
                      -0.0026233      -0.0137923       0.00735725      -0.0211484         0.821486       0.0452674
5.07                    0.743322      -0.0477912       -0.0225137      0.00479388      -0.00280769      -0.0137611
                      -0.0225112      0.00480156          0.74977      -0.0127438       0.00706847      -0.0212471
                     -0.00280764      -0.0137577       0.00706116      -0.0212322         0.821971       0.0447046
5.071                   0.742874      -0.0473152       -0.0224443      0.00515648      -0.00299192       -0.013724
                      -0.0224414      0.00516396         0.749907      -0.0123543       0.00677096      -0.0213269
                     -0.00299169      -0.0137206       0.00676447      -0.0213118         0.822448       0.0441397
5.072                   0.742431      -0.0468333       -0.0223684       0.0055179      -0.00317582      -0.0136843
                      -0.0223651      0.00552515         0.750048      -0.0119699       0.00647292      -0.0214025
                      -0.0031754       -0.013681       0.00646729      -0.0213872         0.822915        0.043573
5.073                   0.741993      -0.0463455       -0.0222861      0.00587801      -0.00335933      -0.0136421
                      -0.0222824      0.00588502         0.750192      -0.0115905       0.00617442      -0.0214739
                     -0.00335873      -0.0136388       0.00616963      -0.0214585         0.823374       0.0430044
5.074                   0.741561       -0.045852       -0.0221973      0.00623668      -0.00354243      -0.0135974
                      -0.0221934      0.00624344          0.75034      -0.0112162       0.00587553      -0.0215411
                     -0.00354164      -0.0135942       0.00587158      -0.0215256         0.823823       0.0424342
5.075                   0.741135      -0.0453528       -0.0221022      0.00659379      -0.00372507      -0.0135502
                      -0.0220979      0.00660026         0.750492      -0.0108471        0.0055763      -0.0216041
                     -0.00372411       -0.013547       0.00557318      -0.0215885         0.824264       0.0418624
5.076                   0.740714       -0.044848       -0.0220008       0.0069492      -0.00390722      -0.0135004
                      -0.0219962      0.00695539         0.750646      -0.0104831       0.00527677      -0.0216629
                     -0.00390609      -0.0134973       0.00527449      -0.0216474         0.824695       0.0412892
5.077                     0.7403      -0.0443377        -0.021893       0.0073028      -0.00408883      -0.0134481
                      -0.0218881      0.00730869         0.750804      -0.0101243       0.00497702      -0.0217176
                     -0.00408753      -0.0134451       0.00497557      -0.0217021         0.825118       0.0407145
5.078                   0.739891      -0.0438221        -0.021779      0.00765446      -0.00426986      -0.0133932
                      -0.0217738      0.00766003         0.750964     -0.00977071       0.00467712      -0.0217681
                     -0.00426841      -0.0133903       0.00467646      -0.0217527         0.825533       0.0401386
5.079                   0.739489      -0.0433011       -0.0216587      0.00800405      -0.00445029      -0.0133358
                      -0.0216533      0.00800931         0.751127     -0.00942234       0.00437708      -0.0218145
                     -0.00444868       -0.013333       0.00437723      -0.0217993         0.825938       0.0395615
5.08                    0.739092       -0.042775       -0.0215323      0.00835146      -0.00463005      -0.0132759
                      -0.0215267      0.00835638         0.751293     -0.00907913       0.00407699      -0.0218568
                      -0.0046283      -0.0132732       0.00407791      -0.0218417         0.826335       0.0389833
5.081                   0.738702      -0.0422439       -0.0213998      0.00869656      -0.00480912      -0.0132135
                      -0.0213939      0.00870113         0.751462      -0.0087412        0.0037769       -0.021895
                     -0.00480723      -0.0132109       0.00377858      -0.0218801         0.826723       0.0384041
5.082                   0.738318      -0.0417077       -0.0212612      0.00903926      -0.00498746      -0.0131485
                      -0.0212551      0.00904348         0.751633      -0.0084085       0.00347685      -0.0219291
                     -0.00498544      -0.0131461       0.00347928      -0.0219145         0.827103        0.037824
5.083                   0.737941      -0.0411668       -0.0211165       0.0093794      -0.00516502       -0.013081
                      -0.0211103      0.00938326         0.751806     -0.00808107       0.00317691      -0.0219592
                     -0.00516288      -0.0130787       0.00318006      -0.0219448         0.827475       0.0372431
5.084                    0.73757      -0.0406211       -0.0209659       0.0097169      -0.00534176       -0.013011
                      -0.0209596      0.00972038         0.751982     -0.00775882       0.00287711      -0.0219852
                     -0.00533951      -0.0130089       0.00288096      -0.0219712         0.827838       0.0366614
5.085                   0.737205      -0.0400706       -0.0208094       0.0100516      -0.00551765      -0.0129385