! TOUCHSTONE file generated by CST MICROWAVE STUDIO
! Date and time: Thu Jul  2 08:03:31 2020
! Project name: Female Human Lung Lower Right.cst
! Header version: 2018
! Port assignment regex: !\s*Touchstone port\s*([0-9]+)\s*=\s*(CST MWS port|CST DS port)\s*([0-9]+|Zmin|Zmax)\s*\(\"(.*)\"\)(\s*mode\s*([0-9]+))?.*
! Touchstone port assignment:
! Touchstone port 1 = CST MWS port 1 ("")
! Touchstone port 2 = CST MWS port 2 ("")
! Touchstone port 3 = CST MWS port 3 ("")
# GHz S RI R 50
5                       0.801763      -0.0531666      0.000667674      -0.0194182      0.000747052     0.000402895
                     0.000628187      -0.0193812         0.790238      -0.0532603      0.000959756     0.000118461
                     0.000755681      0.00039111      0.000960026     0.000117271         0.792672       0.0848468
5.001                   0.801471       -0.053295      0.000509569      -0.0194285      0.000752485     0.000394474
                     0.000472547      -0.0193896         0.789954      -0.0532858      0.000961184     0.000105921
                     0.000760353     0.000382351      0.000961389     0.000104727         0.793818       0.0844083
5.002                   0.801177      -0.0534215      0.000351056      -0.0194378      0.000757879     0.000385986
                     0.000316595      -0.0193971         0.789669      -0.0533098      0.000962475     9.33727e-05
                     0.000764977     0.000373572      0.000962616      9.2178e-05         0.794949       0.0839587
5.003                   0.800881      -0.0535461      0.000192165      -0.0194458      0.000763233     0.000377428
                     0.000160312      -0.0194036         0.789383      -0.0533324      0.000963631     8.08166e-05
                     0.000769554      0.00036477      0.000963708      7.9625e-05         0.796065       0.0834984
5.004                   0.800582      -0.0536689      3.28746e-05      -0.0194528      0.000768545     0.000368799
                     3.71138e-06      -0.0194091         0.789095      -0.0533535      0.000964652     6.82536e-05
                     0.000774086     0.000355942      0.000964665     6.70683e-05         0.797167       0.0830278
5.005                   0.800281      -0.0537898       -0.0001268      -0.0194585      0.000773815     0.000360096
                    -0.000153216      -0.0194136         0.788807      -0.0533731      0.000965536     5.56842e-05
                     0.000778574     0.000347085      0.000965486     5.45085e-05         0.798255       0.0825471
5.006                   0.799978      -0.0539088     -0.000286853      -0.0194631       0.00077904     0.000351316
                    -0.000310465      -0.0194171         0.788517      -0.0533913      0.000966285     4.31092e-05
                     0.000783019     0.000338197      0.000966174     4.19462e-05         0.799328       0.0820567
5.007                   0.799672      -0.0540258     -0.000447258      -0.0194664      0.000784219     0.000342459
                    -0.000468052      -0.0194195         0.788226       -0.053408      0.000966899     3.05292e-05
                     0.000787422     0.000329275      0.000966728      2.9382e-05         0.800387       0.0815569
5.008                   0.799364      -0.0541409     -0.000608036      -0.0194684       0.00078935     0.000333522
                    -0.000625974      -0.0194208         0.787934      -0.0534231      0.000967378     1.79447e-05
                     0.000791784     0.000320316      0.000967147     1.68164e-05         0.801432        0.081048
5.009                   0.799054       -0.054254      -0.00076915      -0.0194692      0.000794432     0.000324502
                    -0.000784213       -0.019421         0.787641      -0.0534367      0.000967721     5.35663e-06
                     0.000796104     0.000311318      0.000967433     4.25004e-06         0.802463       0.0805303
5.01                    0.798742       -0.054365     -0.000930595      -0.0194687      0.000799462     0.000315398
                    -0.000942779      -0.0194201         0.787346      -0.0534487      0.000967929    -7.23459e-06
                     0.000800383     0.000302277      0.000967585    -8.31665e-06         0.803479       0.0800041
5.011                   0.798428       -0.054474      -0.00109236       -0.019467      0.000804439     0.000306209
                     -0.00110167       -0.019418          0.78705      -0.0534591      0.000968002    -1.98283e-05
                     0.000804621     0.000293191      0.000967604    -2.08832e-05         0.804481       0.0794697
5.012                   0.798111      -0.0545808      -0.00125444      -0.0194638      0.000809361     0.000296932
                     -0.00126087      -0.0194148         0.786754       -0.053468      0.000967939    -3.24239e-05
                     0.000808819     0.000284056      0.000967489    -3.34489e-05          0.80547       0.0789273
5.013                   0.797793      -0.0546856       -0.0014168      -0.0194594      0.000814224     0.000287566
                      -0.0014204      -0.0194105         0.786456      -0.0534752      0.000967742    -4.50207e-05
                     0.000812975      0.00027487      0.000967241    -4.60134e-05         0.806444       0.0783773
5.014                   0.797472      -0.0547882      -0.00157944      -0.0194536      0.000819027     0.000278109
                     -0.00158022      -0.0194049         0.786157      -0.0534808      0.000967409    -5.76181e-05
                     0.000817089      0.00026563       0.00096686    -5.85762e-05         0.807404       0.0778198
5.015                   0.797149      -0.0548887      -0.00174235      -0.0194464      0.000823768      0.00026856
                     -0.00174035      -0.0193981         0.785856      -0.0534847      0.000966941    -7.02155e-05
                     0.000821161     0.000256333      0.000966345    -7.11367e-05         0.808351       0.0772552
5.016                   0.796824      -0.0549869      -0.00190549      -0.0194378      0.000828444     0.000258917
                     -0.00190075        -0.01939         0.785555       -0.053487      0.000966337    -8.28123e-05
                      0.00082519     0.000246976      0.000965698    -8.36945e-05         0.809284       0.0766838
5.017                   0.796497      -0.0550829      -0.00206885      -0.0194278      0.000833052      0.00024918
                     -0.00206145      -0.0193807         0.785252      -0.0534875      0.000965598    -9.54078e-05
                     0.000829174     0.000237556      0.000964917     -9.6249e-05         0.810203       0.0761057
5.018                   0.796167      -0.0551767      -0.00223243      -0.0194163      0.000837589     0.000239347
                      -0.0022224      -0.0193701         0.784948      -0.0534863      0.000964723    -0.000108001
                     0.000833112      0.00022807      0.000964003      -0.0001088         0.811108       0.0755212
5.019                   0.795836      -0.0552681      -0.00239618      -0.0194035      0.000842054     0.000229417
                     -0.00238361      -0.0193582         0.784643      -0.0534834      0.000963712    -0.000120593
                     0.000837004     0.000218516      0.000962956    -0.000121347            0.812       0.0749306
5.02                    0.795502      -0.0553572      -0.00256009      -0.0193891      0.000846442     0.000219388
                     -0.00254507       -0.019345         0.784337      -0.0534787      0.000962565    -0.000133181
                     0.000840847     0.000208891      0.000961775    -0.000133888         0.812879       0.0743341
5.021                   0.795167      -0.0554439      -0.00272416      -0.0193733      0.000850752     0.000209261
                     -0.00270675      -0.0193305          0.78403      -0.0534721      0.000961282    -0.000145765
                      0.00084464     0.000199192      0.000960461    -0.000146425         0.813744       0.0737319
5.022                    0.79483      -0.0555283      -0.00288834       -0.019356       0.00085498     0.000199035
                     -0.00286864      -0.0193145         0.783722      -0.0534638      0.000959862    -0.000158345
                      0.00084838     0.000189417      0.000959013    -0.000158956         0.814596       0.0731243
5.023                    0.79449      -0.0556102      -0.00305261      -0.0193372      0.000859124     0.000188708
                     -0.00303072      -0.0192972         0.783412      -0.0534536      0.000958306    -0.000170919
                     0.000852066     0.000179563       0.00095743    -0.000171481         0.815435       0.0725114
5.024                   0.794148      -0.0556896      -0.00321696      -0.0193169       0.00086318     0.000178281
                     -0.00319297      -0.0192785         0.783102      -0.0534416      0.000956612    -0.000183488
                     0.000855696     0.000169628      0.000955714    -0.000183999         0.816261       0.0718935
5.025                   0.793805      -0.0557666      -0.00338136      -0.0192951      0.000867145     0.000167752
                      -0.0033554      -0.0192584          0.78279      -0.0534276      0.000954781    -0.000196051
                     0.000859266     0.000159609      0.000953862     -0.00019651         0.817074       0.0712708
5.026                   0.793459       -0.055841      -0.00354577      -0.0192718      0.000871017     0.000157122
                     -0.00351794      -0.0192369         0.782477      -0.0534118      0.000952812    -0.000208606
                     0.000862776     0.000149504      0.000951876    -0.000209014         0.817874       0.0706435
5.027                   0.793112      -0.0559129      -0.00371019      -0.0192469      0.000874791     0.000146391
                     -0.00368062      -0.0192139         0.782163       -0.053394      0.000950705    -0.000221154
                      0.00086622     0.000139312      0.000949755    -0.000221509         0.818661       0.0700118
5.028                   0.792763      -0.0559821      -0.00387459      -0.0192204      0.000878465     0.000135557
                     -0.00384339      -0.0191894         0.781848      -0.0533742       0.00094846    -0.000233693
                     0.000869598      0.00012903      0.000947498    -0.000233995         0.819436       0.0693759
5.029                   0.792411      -0.0560488      -0.00403893      -0.0191924      0.000882036     0.000124622
                     -0.00400623      -0.0191635         0.781532      -0.0533525      0.000946076    -0.000246223
                     0.000872906     0.000118656      0.000945105    -0.000246471         0.820198        0.068736
5.03                    0.792058      -0.0561127      -0.00420319      -0.0191629      0.000885501     0.000113585
                     -0.00416912       -0.019136         0.781215      -0.0533287      0.000943552    -0.000258743
                     0.000876141     0.000108188      0.000942575    -0.000258938         0.820947       0.0680922
5.031                   0.791703       -0.056174      -0.00436735      -0.0191317      0.000888856     0.000102447
                     -0.00433203      -0.0191071         0.780897      -0.0533029      0.000940888    -0.000271253
                       0.0008793      9.7625e-05      0.000939909    -0.000271394         0.821684       0.0674448
5.032                   0.791346      -0.0562325      -0.00453137       -0.019099      0.000892097     9.12081e-05
                     -0.00449495      -0.0190766         0.780578      -0.0532751      0.000938085    -0.000283751
                     0.000882379     8.69653e-05      0.000937105    -0.000283839         0.822409       0.0667939
5.033                   0.790988      -0.0562883      -0.00469522      -0.0190648      0.000895222     7.98685e-05
                     -0.00465784      -0.0190446         0.780258      -0.0532452       0.00093514    -0.000296236
                     0.000885375     7.62076e-05      0.000934163    -0.000296272         0.823122       0.0661397
5.034                   0.790627      -0.0563412       -0.0048589      -0.0190289      0.000898228     6.84289e-05
                     -0.00482069      -0.0190111         0.779938      -0.0532131      0.000932054    -0.000308709
                     0.000888284     6.53505e-05      0.000931082    -0.000308692         0.823823       0.0654824
5.035                   0.790265      -0.0563913      -0.00502236      -0.0189915       0.00090111     5.68901e-05
                     -0.00498346       -0.018976         0.779616       -0.053179      0.000928826    -0.000321167
                     0.000891103      5.4393e-05      0.000927862    -0.000321099         0.824512       0.0648221
5.036                   0.789901      -0.0564385      -0.00518558      -0.0189525      0.000903866     4.52529e-05
                     -0.00514612      -0.0189393         0.779293      -0.0531427      0.000925455    -0.000333611
                     0.000893828     4.33342e-05      0.000924502    -0.000333492         0.825189       0.0641589
5.037                   0.789536      -0.0564828      -0.00534852      -0.0189119      0.000906493     3.35181e-05
                     -0.00530865      -0.0189011         0.778969      -0.0531042      0.000921942    -0.000346039
                     0.000896455     3.21732e-05      0.000921002     -0.00034587         0.825854       0.0634931
5.038                   0.789168      -0.0565242      -0.00551117      -0.0188698      0.000908987     2.16868e-05
                     -0.00547102      -0.0188614         0.778644      -0.0530635      0.000918284    -0.000358451
                     0.000898981     2.09095e-05       0.00091736    -0.000358232         0.826508       0.0628248
5.039                   0.788799      -0.0565626      -0.00567349       -0.018826      0.000911344     9.76018e-06
                      -0.0056332        -0.01882         0.778319      -0.0530206      0.000914483    -0.000370845
                     0.000901401     9.54264e-06      0.000913577    -0.000370579          0.82715       0.0621541
5.04                    0.788429      -0.0565979      -0.00583545      -0.0187807      0.000913562    -2.26059e-06
                     -0.00579516      -0.0187771         0.777993      -0.0529755      0.000910536     -0.00038322
                     0.000903711    -1.92779e-06      0.000909651    -0.000382907         0.827781       0.0614812
5.041                   0.788057      -0.0566302      -0.00599704      -0.0187339      0.000915637    -1.43742e-05
                     -0.00595689      -0.0187325         0.777665      -0.0529282      0.000906443    -0.000395576
                     0.000905907    -1.35019e-05      0.000905581    -0.000395218           0.8284       0.0608062
5.042                   0.787683      -0.0566594      -0.00615821      -0.0186855      0.000917566     -2.6579e-05
                     -0.00611832      -0.0186864         0.777337      -0.0528785      0.000902205    -0.000407911
                     0.000907986    -2.51796e-05      0.000901368     -0.00040751         0.829008       0.0601292
5.043                   0.787308      -0.0566855      -0.00631895      -0.0186355      0.000919346    -3.88736e-05
                     -0.00627946      -0.0186387         0.777009      -0.0528266      0.000897819    -0.000420224
                     0.000909942    -3.69608e-05      0.000897009    -0.000419781         0.829606       0.0594504
5.044                   0.786931      -0.0567085      -0.00647924       -0.018584      0.000920973    -5.12563e-05
                     -0.00644025      -0.0185895         0.776679      -0.0527724      0.000893285    -0.000432515
                     0.000911771     -4.8845e-05      0.000892504    -0.000432032         0.830192         0.05877
5.045                   0.786553      -0.0567282      -0.00663902      -0.0185309      0.000922445    -6.37253e-05
                     -0.00660069      -0.0185386         0.776349      -0.0527158      0.000888602    -0.000444782
                      0.00091347    -6.08317e-05      0.000887853     -0.00044426         0.830767       0.0580879
5.046                   0.786174      -0.0567447       -0.0067983      -0.0184764      0.000923757    -7.62786e-05
                     -0.00676072      -0.0184862         0.776018      -0.0526569       0.00088377    -0.000457024
                     0.000915034    -7.29202e-05      0.000883054    -0.000456466         0.831332       0.0574044
5.047                   0.785793       -0.056758      -0.00695703      -0.0184203      0.000924908    -8.89144e-05
                     -0.00692033      -0.0184322         0.775686      -0.0525956      0.000878788    -0.000469239
                     0.000916459    -8.51096e-05      0.000878107    -0.000468646         0.831886       0.0567196
5.048                    0.78541       -0.056768       -0.0071152      -0.0183627      0.000925894     -0.00010163
                     -0.00707949      -0.0183766         0.775354       -0.052532      0.000873655    -0.000481427
                      0.00091774    -9.73988e-05      0.000873011    -0.000480802         0.832429       0.0560336
5.049                   0.785027      -0.0567746      -0.00727278      -0.0183036      0.000926712    -0.000114425
                     -0.00723817      -0.0183195         0.775021      -0.0524659      0.000868371    -0.000493586
                     0.000918873    -0.000109787      0.000867764     -0.00049293         0.832962       0.0553464
5.05                    0.784642       -0.056778      -0.00742975      -0.0182431      0.000927358    -0.000127295
                     -0.00739633      -0.0182608         0.774687      -0.0523975      0.000862933    -0.000505714
                     0.000919854    -0.000122272      0.000862366    -0.000505031         0.833485       0.0546583
5.051                   0.784256      -0.0567779      -0.00758607      -0.0181811       0.00092783    -0.000140239
                     -0.00755395      -0.0182005         0.774353      -0.0523267      0.000857343    -0.000517811
                     0.000920678    -0.000134852      0.000856816    -0.000517102         0.833997       0.0539692
5.052                   0.783869      -0.0567744      -0.00774173      -0.0181176      0.000928126    -0.000153253
                       -0.007711      -0.0181388         0.774019      -0.0522534      0.000851598    -0.000529875
                     0.000921342    -0.000147527      0.000851112    -0.000529142           0.8345       0.0532794
5.053                   0.783481      -0.0567675      -0.00789672      -0.0180527      0.000928241    -0.000166336
                     -0.00786745      -0.0180755         0.773683      -0.0521776      0.000845698    -0.000541904
                      0.00092184    -0.000160293      0.000845255     -0.00054115         0.834992       0.0525889
5.054                   0.783092      -0.0567571        -0.008051      -0.0179864      0.000928174    -0.000179485
                     -0.00802328      -0.0180107         0.773348      -0.0520994      0.000839643    -0.000553897
                     0.000922169    -0.000173149      0.000839243    -0.000553125         0.835474       0.0518977
5.055                   0.782702      -0.0567432      -0.00820456      -0.0179187      0.000927922    -0.000192697
                     -0.00817846      -0.0179444         0.773011      -0.0520187       0.00083343    -0.000565853
                     0.000922325    -0.000186093      0.000833075    -0.000565064         0.835947       0.0512061
5.056                    0.78231      -0.0567258      -0.00835737      -0.0178497      0.000927481     -0.00020597
                     -0.00833296      -0.0178766         0.772675      -0.0519356      0.000827061    -0.000577769
                     0.000922303    -0.000199122       0.00082675    -0.000576966          0.83641        0.050514
5.057                   0.781918      -0.0567049      -0.00850941      -0.0177792      0.000926849    -0.000219299
                     -0.00848675      -0.0178073         0.772338        -0.05185      0.000820533    -0.000589644
                     0.000922099    -0.000212233      0.000820267     -0.00058883         0.836863       0.0498216
5.058                   0.781525      -0.0566804      -0.00866068      -0.0177075      0.000926024    -0.000232683
                     -0.00863982      -0.0177366            0.772      -0.0517618      0.000813846    -0.000601477
                      0.00092171    -0.000225424      0.000813625    -0.000600654         0.837307        0.049129
5.059                   0.781131      -0.0566523      -0.00881114      -0.0176344      0.000925004    -0.000246118
                     -0.00879214      -0.0176645         0.771662      -0.0516712      0.000806998    -0.000613266
                     0.000921131    -0.000238691      0.000806824    -0.000612436         0.837741       0.0484362
5.06                    0.780737      -0.0566206      -0.00896079        -0.01756      0.000923784    -0.000259601
                     -0.00894367       -0.017591         0.771324      -0.0515781       0.00079999    -0.000625008
                     0.000920358    -0.000252033      0.000799862    -0.000624174         0.838167       0.0477433
5.061                   0.780342      -0.0565852      -0.00910961      -0.0174843      0.000922364    -0.000273129
                     -0.00909441       -0.017516         0.770986      -0.0514824      0.000792821    -0.000636702
                     0.000919388    -0.000265445      0.000792738    -0.000635866         0.838582       0.0470504
5.062                   0.779946      -0.0565462      -0.00925757      -0.0174074      0.000920741    -0.000286698
                     -0.00924433      -0.0174397         0.770647      -0.0513842      0.000785489    -0.000648346
                     0.000918217    -0.000278924      0.000785452    -0.000647511         0.838989       0.0463576
5.063                   0.779549      -0.0565035      -0.00940468      -0.0173292      0.000918913    -0.000300305
                     -0.00939341       -0.017362         0.770308      -0.0512835      0.000777994    -0.000659938
                     0.000916841    -0.000292465      0.000778002    -0.000659106         0.839387       0.0456649
5.064                   0.779152      -0.0564571      -0.00955091      -0.0172498      0.000916877    -0.000313947
                     -0.00954162       -0.017283         0.769969      -0.0511802      0.000770336    -0.000671475
                     0.000915257    -0.000306068      0.000770388     -0.00067065         0.839776       0.0449724
5.065                   0.778754       -0.056407      -0.00969626      -0.0171693      0.000914631     -0.00032762
                     -0.00968896      -0.0172027         0.769629      -0.0510744      0.000762512    -0.000682957
                     0.000913461    -0.000319726      0.000762609     -0.00068214         0.840156       0.0442802
5.066                   0.778356      -0.0563532      -0.00984071      -0.0170875      0.000912174     -0.00034132
                      -0.0098354      -0.0171211         0.769289       -0.050966      0.000754523    -0.000694381
                      0.00091145    -0.000333436      0.000754664    -0.000693574         0.840527       0.0435883
5.067                   0.777958      -0.0562956      -0.00998425      -0.0170046      0.000909503    -0.000355043
                     -0.00998093      -0.0170383          0.76895      -0.0508551      0.000746368    -0.000705744
                      0.00090922    -0.000347194      0.000746551     -0.00070495          0.84089       0.0428969
5.068                   0.777559      -0.0562343       -0.0101269      -0.0169206      0.000906617    -0.000368788
                      -0.0101255      -0.0169542          0.76861      -0.0507417      0.000738046    -0.000717045
                     0.000906769    -0.000360996      0.000738271    -0.000716265         0.841244       0.0422059
5.069                    0.77716      -0.0561692       -0.0102686      -0.0168355      0.000903513    -0.000382548
                      -0.0102692      -0.0168689          0.76827      -0.0506256      0.000729557    -0.000728281
                     0.000904093    -0.000374837      0.000729823    -0.000727518          0.84159       0.0415154
5.07                    0.776761      -0.0561004       -0.0104094      -0.0167493      0.000900191     -0.00039632
                      -0.0104119      -0.0167824          0.76793      -0.0505071      0.000720899     -0.00073945
                      0.00090119    -0.000388713      0.000721205    -0.000738705         0.841927       0.0408255
5.071                   0.776361      -0.0560277       -0.0105492      -0.0166621      0.000896647    -0.000410101
                      -0.0105536      -0.0166948         0.767589      -0.0503859      0.000712073    -0.000750548
                     0.000898058    -0.000402619      0.000712417    -0.000749825         0.842256       0.0401362
5.072                   0.775962      -0.0559513       -0.0106881      -0.0165738      0.000892882    -0.000423886
                      -0.0106943       -0.016606         0.767249      -0.0502622      0.000703077    -0.000761575
                     0.000894692    -0.000416551      0.000703458    -0.000760875         0.842577       0.0394477
5.073                   0.775562       -0.055871        -0.010826      -0.0164845      0.000888894    -0.000437672
                      -0.0108341       -0.016516         0.766909       -0.050136      0.000693912    -0.000772527
                     0.000891091    -0.000430503      0.000694328    -0.000771852          0.84289       0.0387598
5.074                   0.775163      -0.0557869        -0.010963      -0.0163942       0.00088468    -0.000451453
                      -0.0109729      -0.0164251         0.766569      -0.0500072      0.000684576    -0.000783402
                     0.000887253    -0.000444472      0.000685027    -0.000782754         0.843195       0.0380728
5.075                   0.774763      -0.0556991       -0.0110991       -0.016303       0.00088024    -0.000465227
                      -0.0111106       -0.016333         0.766228      -0.0498758      0.000675069    -0.000794198
                     0.000883175    -0.000458451      0.000675552    -0.000793577         0.843492       0.0373866
5.076                   0.774364      -0.0556074       -0.0112342      -0.0162108      0.000875573    -0.000478989
                      -0.0112474      -0.0162399         0.765888      -0.0497418       0.00066539    -0.000804911
                     0.000878854    -0.000472436      0.000665905     -0.00080432         0.843781       0.0367013
5.077                   0.773965      -0.0555119       -0.0113683      -0.0161177      0.000870678    -0.000492734
                      -0.0113831      -0.0161458         0.765548      -0.0496053       0.00065554    -0.000815539
                     0.000874291    -0.000486422      0.000656084    -0.000814979         0.844063       0.0360169
5.078                   0.773566      -0.0554126       -0.0115015      -0.0160237      0.000865553    -0.000506459
                      -0.0115178      -0.0160508         0.765208      -0.0494663      0.000645517    -0.000826079
                     0.000869481    -0.000500403      0.000646088    -0.000825552         0.844337       0.0353334
5.079                   0.773168      -0.0553095       -0.0116338      -0.0159288      0.000860197    -0.000520159
                      -0.0116515      -0.0159547         0.764868      -0.0493246      0.000635323    -0.000836528
                     0.000864425    -0.000514374      0.000635918    -0.000836035         0.844603        0.034651
5.08                    0.772769      -0.0552026       -0.0117651      -0.0158331      0.000854611     -0.00053383
                      -0.0117842      -0.0158578         0.764529      -0.0491804      0.000624955    -0.000846884
                      0.00085912     -0.00052833      0.000625574    -0.000846426         0.844862       0.0339696
5.081                   0.772372      -0.0550919       -0.0118954      -0.0157365      0.000848793    -0.000547468
                      -0.0119158      -0.0157599         0.764189      -0.0490337      0.000614414    -0.000857143
                     0.000853565    -0.000542265      0.000615054    -0.000856722         0.845113       0.0332893
5.082                   0.771975      -0.0549774       -0.0120249      -0.0156391      0.000842742    -0.000561067
                      -0.0120464      -0.0156612          0.76385      -0.0488843      0.000603699    -0.000867303
                     0.000847759    -0.000556174      0.000604359    -0.000866919         0.845357       0.0326102
5.083                   0.771578      -0.0548591       -0.0121533       -0.015541      0.000836458    -0.000574624
                       -0.012176      -0.0155616         0.763511      -0.0487324      0.000592812    -0.000877361
                     0.000841702    -0.000570051      0.000593489    -0.000877015         0.845594       0.0319322
5.084                   0.771182      -0.0547371       -0.0122809       -0.015442      0.000829942    -0.000588134
                      -0.0123046      -0.0154611         0.763172       -0.048578       0.00058175    -0.000887313
                     0.000835391    -0.000583891      0.000582442    -0.000887006         0.845824       0.0312554
5.085                   0.770787      -0.0546113       -0.0124076      -0.0153423      0.000823191    -0.000601592