! TOUCHSTONE file generated by CST MICROWAVE STUDIO
! Date and time: Mon Jul 13 09:58:34 2020
! Project name: Female Human Lung Lower Right.cst
! Header version: 2018
! Port assignment regex: !\s*Touchstone port\s*([0-9]+)\s*=\s*(CST MWS port|CST DS port)\s*([0-9]+|Zmin|Zmax)\s*\(\"(.*)\"\)(\s*mode\s*([0-9]+))?.*
! Touchstone port assignment:
! Touchstone port 1 = CST MWS port 1 ("")
! Touchstone port 2 = CST MWS port 2 ("")
! Touchstone port 3 = CST MWS port 3 ("")
# GHz S RI R 50
5                       0.812452      -0.0479378        0.0142063      -0.0199388     -9.54498e-05     0.000442845
                       0.0142536      -0.0199182         0.802127      -0.0449007      0.000373192      0.00012127
                    -0.000113469     0.000414611      0.000373394     0.000121477         0.811133       0.0489545
5.001                   0.812286      -0.0481841        0.0140719      -0.0200115     -8.82087e-05     0.000442658
                       0.0141199      -0.0199937         0.802017      -0.0450805      0.000374896     0.000114014
                    -0.000107604     0.000415758      0.000375104     0.000114191         0.811786       0.0485303
5.002                   0.812116      -0.0484308         0.013938       -0.020084     -8.10419e-05     0.000442322
                       0.0139866      -0.0200691         0.801904      -0.0452613      0.000376435     0.000106717
                    -0.000101724     0.000416815      0.000376648     0.000106866          0.81243       0.0481012
5.003                   0.811944      -0.0486778        0.0138047      -0.0201563     -7.39542e-05     0.000441841
                       0.0138536      -0.0201444         0.801787      -0.0454429      0.000377807      9.9385e-05
                    -9.58309e-05     0.000417782      0.000378022     9.95062e-05         0.813065       0.0476672
5.004                   0.811768      -0.0489251        0.0136718      -0.0202286     -6.69503e-05     0.000441219
                        0.013721      -0.0202195         0.801667      -0.0456253      0.000379012     9.20226e-05
                    -8.99273e-05     0.000418658      0.000379226     9.21164e-05         0.813692       0.0472285
5.005                   0.811588      -0.0491728        0.0135395      -0.0203007     -6.00345e-05      0.00044046
                       0.0135887      -0.0202946         0.801543      -0.0458085      0.000380048     8.46343e-05
                    -8.40162e-05      0.00041944      0.000380259     8.47017e-05          0.81431       0.0467851
5.006                   0.811405      -0.0494208        0.0134076      -0.0203729      -5.3211e-05      0.00043957
                       0.0134567      -0.0203696         0.801416      -0.0459924      0.000380912     7.72253e-05
                    -7.81006e-05     0.000420128      0.000381118     7.72672e-05          0.81492       0.0463373
5.007                   0.811219      -0.0496691        0.0132761       -0.020445     -4.64836e-05     0.000438553
                       0.0133249      -0.0204445         0.801285      -0.0461769      0.000381604     6.98004e-05
                    -7.21834e-05     0.000420722      0.000381804     6.98179e-05         0.815521       0.0458851
5.008                   0.811029      -0.0499176        0.0131451      -0.0205171      -3.9856e-05     0.000437414
                       0.0131935      -0.0205194         0.801151       -0.046362      0.000382124     6.23648e-05
                    -6.62676e-05      0.00042122      0.000382314     6.23591e-05         0.816113       0.0454287
5.009                   0.810835      -0.0501664        0.0130145      -0.0205893     -3.33318e-05     0.000436159
                       0.0130623      -0.0205944         0.801013      -0.0465477       0.00038247     5.49234e-05
                    -6.03566e-05     0.000421622      0.000382649     5.48959e-05         0.816698       0.0449682
5.01                    0.810638      -0.0504153        0.0128843      -0.0206616     -2.69141e-05     0.000434793
                       0.0129314      -0.0206693         0.800872      -0.0467339      0.000382641     4.74815e-05
                    -5.44536e-05     0.000421929      0.000382808     4.74336e-05         0.817273       0.0445036
5.011                   0.810438      -0.0506645        0.0127545       -0.020734     -2.06058e-05     0.000433321
                       0.0128007      -0.0207443         0.800727      -0.0469205      0.000382637     4.00442e-05
                    -4.85617e-05     0.000422139      0.000382791     3.99775e-05         0.817841       0.0440353
5.012                   0.810234      -0.0509138         0.012625      -0.0208066     -1.44095e-05      0.00043175
                       0.0126701      -0.0208194         0.800579      -0.0471076      0.000382458     3.26168e-05
                    -4.26843e-05     0.000422254      0.000382597     3.25329e-05           0.8184       0.0435631
5.013                   0.810026      -0.0511633        0.0124958      -0.0208793     -8.32766e-06     0.000430084
                       0.0125398      -0.0208946         0.800427       -0.047295      0.000382105     2.52046e-05
                    -3.68249e-05     0.000422273      0.000382227     2.51051e-05         0.818951       0.0430873
5.014                   0.809815      -0.0514129        0.0123669      -0.0209522     -2.36241e-06     0.000428331
                       0.0124096      -0.0209698         0.800272      -0.0474827      0.000381576     1.78127e-05
                    -3.09864e-05     0.000422197      0.000381681     1.76995e-05         0.819494       0.0426079
5.015                     0.8096      -0.0516625        0.0122382      -0.0210253       3.4845e-06     0.000426495
                       0.0122795      -0.0210452         0.800113      -0.0476707      0.000380873     1.04466e-05
                    -2.51724e-05     0.000422028      0.000380959     1.03213e-05         0.820029       0.0421251
5.016                   0.809381      -0.0519122        0.0121097      -0.0210987      9.21146e-06     0.000424583
                       0.0121496      -0.0211208         0.799951      -0.0478589      0.000379995     3.11148e-06
                     -1.9386e-05     0.000421765      0.000380063     2.97606e-06         0.820555        0.041639
5.017                   0.809158       -0.052162        0.0119815      -0.0211724      1.48172e-05       0.0004226
                       0.0120197      -0.0211966         0.799785      -0.0480473      0.000378945    -4.18738e-06
                    -1.36306e-05     0.000421411      0.000378993    -4.33109e-06         0.821074       0.0411496
5.018                   0.808932      -0.0524116        0.0118534      -0.0212464      2.03008e-05     0.000420554
                       0.0118899      -0.0212725         0.799616      -0.0482358      0.000377722    -1.14447e-05
                    -7.90921e-06     0.000420966       0.00037775    -1.15948e-05         0.821584       0.0406571
5.019                   0.808702      -0.0526613        0.0117254      -0.0213207      2.56615e-05     0.000418449
                       0.0117601      -0.0213487         0.799443      -0.0484245      0.000376329    -1.86553e-05
                    -2.22498e-06     0.000420433      0.000376336    -1.88099e-05         0.822087       0.0401615
5.02                    0.808468      -0.0529108        0.0115976      -0.0213954       3.0899e-05     0.000416293
                       0.0116304      -0.0214251         0.799267      -0.0486132      0.000374765    -2.58139e-05
                     3.41899e-06     0.000419812      0.000374752    -2.59711e-05         0.822581        0.039663
5.021                    0.80823      -0.0531603        0.0114698      -0.0214705      3.60131e-05      0.00041409
                       0.0115006      -0.0215018         0.799087      -0.0488019      0.000373033    -3.29154e-05
                     9.01987e-06     0.000419107         0.000373    -3.30733e-05         0.823068       0.0391616
5.022                   0.807988      -0.0534095         0.011342       -0.021546      4.10039e-05     0.000411848
                       0.0113707      -0.0215787         0.798904      -0.0489906      0.000371135    -3.99546e-05
                     1.45748e-05      0.00041832      0.000371081    -4.01115e-05         0.823547       0.0386574
5.023                   0.807742      -0.0536586        0.0112142      -0.0216219      4.58721e-05     0.000409572
                       0.0112408       -0.021656         0.798717      -0.0491792      0.000369073    -4.69265e-05
                      2.0081e-05     0.000417452      0.000368999    -4.70804e-05         0.824018       0.0381506
5.024                   0.807493      -0.0539074        0.0110863      -0.0216982      5.06182e-05     0.000407269
                       0.0111108      -0.0217335         0.798527      -0.0493678      0.000366848    -5.38261e-05
                     2.55359e-05     0.000416506      0.000366754    -5.39753e-05         0.824482       0.0376411
5.025                   0.807239      -0.0541559        0.0109584      -0.0217751      5.52433e-05     0.000404944
                       0.0109806      -0.0218114         0.798334      -0.0495562      0.000364463    -6.06484e-05
                      3.0937e-05     0.000415485       0.00036435    -6.07912e-05         0.824938       0.0371291
5.026                   0.806981      -0.0544041        0.0108303      -0.0218524      5.97489e-05     0.000402604
                       0.0108503      -0.0218897         0.798137      -0.0497444      0.000361921    -6.73887e-05
                     3.62821e-05     0.000414392      0.000361789    -6.75234e-05         0.825386       0.0366147
5.027                    0.80672      -0.0546519        0.0107021      -0.0219302      6.41363e-05     0.000400253
                       0.0107197      -0.0219683         0.797936      -0.0499324      0.000359224    -7.40422e-05
                     4.15689e-05     0.000413229      0.000359074    -7.41671e-05         0.825826       0.0360978
5.028                   0.806454      -0.0548994        0.0105736      -0.0220085      6.84076e-05     0.000397899
                       0.0105889      -0.0220473         0.797732      -0.0501202      0.000356374    -8.06042e-05
                     4.67955e-05     0.000412001      0.000356208    -8.07179e-05         0.826259       0.0355787
5.029                   0.806184      -0.0551463        0.0104449      -0.0220874      7.25648e-05     0.000395546
                       0.0104579      -0.0221268         0.797525      -0.0503077      0.000353376    -8.70702e-05
                       5.196e-05      0.00041071      0.000353194    -8.71711e-05         0.826685       0.0350574
5.03                     0.80591      -0.0553927        0.0103158      -0.0221668      7.66103e-05       0.0003932
                       0.0103265      -0.0222066         0.797314      -0.0504949      0.000350232    -9.34357e-05
                     5.70608e-05     0.000409359      0.000350035    -9.35225e-05         0.827103       0.0345339
5.031                   0.805632      -0.0556385        0.0101865      -0.0222468      8.05468e-05     0.000390867
                       0.0101948      -0.0222868           0.7971      -0.0506818      0.000346946    -9.96964e-05
                     6.20964e-05     0.000407953      0.000346735    -9.97678e-05         0.827514       0.0340084
5.032                   0.805349      -0.0558838        0.0100567      -0.0223274      8.43772e-05     0.000388551
                       0.0100626      -0.0223675         0.796882      -0.0508682      0.000343521    -0.000105848
                     6.70656e-05     0.000406494      0.000343297    -0.000105903         0.827917       0.0334808
5.033                   0.805062      -0.0561283       0.00992649      -0.0224085      8.81046e-05     0.000386258
                       0.0099301      -0.0224487         0.796661      -0.0510543       0.00033996    -0.000111887
                     7.19673e-05     0.000404987      0.000339726    -0.000111924         0.828313       0.0329514
5.034                   0.804771      -0.0563721        0.0097958      -0.0224903      9.17324e-05     0.000383993
                       0.0097971      -0.0225303         0.796436        -0.05124      0.000336268    -0.000117808
                     7.68007e-05     0.000403435      0.000336024    -0.000117827         0.828702         0.03242
5.035                   0.804476      -0.0566152       0.00966457      -0.0225727      9.52642e-05      0.00038176
                      0.00966358      -0.0226124         0.796208      -0.0514251      0.000332449    -0.000123609
                     8.15651e-05     0.000401842      0.000332197    -0.000123608         0.829083       0.0318869
5.036                   0.804176      -0.0568574       0.00953276      -0.0226556      9.87039e-05     0.000379565
                      0.00952951       -0.022695         0.795976      -0.0516098      0.000328506    -0.000129285
                     8.62601e-05     0.000400212      0.000328248    -0.000129264         0.829457        0.031352
5.037                   0.803872      -0.0570987       0.00940032      -0.0227392      0.000102056     0.000377411
                      0.00939485      -0.0227781         0.795742       -0.051794      0.000324445    -0.000134834
                     9.08856e-05     0.000398549      0.000324181    -0.000134791         0.829824       0.0308154
5.038                   0.803564       -0.057339        0.0092672      -0.0228234      0.000105323     0.000375303
                      0.00925957      -0.0228616         0.795503      -0.0519776      0.000320268    -0.000140251
                     9.54416e-05     0.000396856      0.000320001    -0.000140187         0.830184       0.0302772
5.039                   0.803251      -0.0575783       0.00913334      -0.0229083      0.000108512     0.000373245
                      0.00912359      -0.0229457         0.795262      -0.0521607      0.000315981    -0.000145533
                     9.99282e-05     0.000395139      0.000315712    -0.000145448         0.830537       0.0297375
5.04                    0.802934      -0.0578166       0.00899871      -0.0229937      0.000111625      0.00037124
                      0.00898691      -0.0230303         0.795016      -0.0523431      0.000311588    -0.000150678
                     0.000104346       0.0003934       0.00031132     -0.00015057         0.830883       0.0291963
5.041                   0.802612      -0.0580537       0.00886324      -0.0230798      0.000114669     0.000369292
                      0.00884944      -0.0231154         0.794768      -0.0525249      0.000307095    -0.000155682
                     0.000108696     0.000391643      0.000306828    -0.000155553         0.831222       0.0286536
5.042                   0.802286      -0.0582896       0.00872688      -0.0231665      0.000117648     0.000367404
                      0.00871117       -0.023201         0.794516      -0.0527061      0.000302505    -0.000160544
                     0.000112979     0.000389874      0.000302242    -0.000160392         0.831554       0.0281096
5.043                   0.801955      -0.0585242       0.00858959      -0.0232538      0.000120567      0.00036558
                      0.00857203      -0.0232871          0.79426      -0.0528866      0.000297823     -0.00016526
                     0.000117195     0.000388095      0.000297566    -0.000165086         0.831879       0.0275643
5.044                    0.80162      -0.0587574        0.0084513      -0.0233417      0.000123432     0.000363822
                      0.00843199      -0.0233738         0.794002      -0.0530663      0.000293055    -0.000169828
                     0.000121348     0.000386311      0.000292805    -0.000169632         0.832197       0.0270176
5.045                   0.801281      -0.0589893       0.00831197      -0.0234302      0.000126248     0.000362133
                      0.00829097      -0.0234609         0.793739      -0.0532454      0.000288206    -0.000174246
                     0.000125437     0.000384525      0.000287964    -0.000174028         0.832508       0.0264698
5.046                   0.800936      -0.0592196       0.00817153      -0.0235193       0.00012902     0.000360515
                      0.00814896      -0.0235486         0.793474      -0.0534236       0.00028328    -0.000178512
                     0.000129465     0.000382741      0.000283049    -0.000178273         0.832812       0.0259208
5.047                   0.800588      -0.0594485       0.00802996       -0.023609      0.000131755      0.00035897
                      0.00800589      -0.0236367         0.793205      -0.0536011      0.000278283    -0.000182624
                     0.000133435     0.000380962      0.000278064    -0.000182365          0.83311       0.0253707
5.048                   0.800234      -0.0596756       0.00788717      -0.0236992      0.000134457     0.000357501
                      0.00786171      -0.0237254         0.792932      -0.0537778      0.000273221    -0.000186581
                     0.000137348     0.000379193      0.000273015    -0.000186302         0.833401       0.0248196
5.049                   0.799876      -0.0599011       0.00774313        -0.02379      0.000137133     0.000356107
                      0.00771638      -0.0238145         0.792656      -0.0539537      0.000268097    -0.000190381
                     0.000141207     0.000377436      0.000267906    -0.000190083         0.833685       0.0242674
5.05                    0.799513      -0.0601248       0.00759778      -0.0238813      0.000139789     0.000354791
                      0.00756983      -0.0239041         0.792377      -0.0541287      0.000262918    -0.000194023
                     0.000145015     0.000375695      0.000262744    -0.000193707         0.833963       0.0237143
5.051                   0.799146      -0.0603467       0.00745105      -0.0239732      0.000142431     0.000353553
                      0.00742204      -0.0239942         0.792094      -0.0543028      0.000257688    -0.000197506
                     0.000148774     0.000373974      0.000257533    -0.000197173         0.834233       0.0231603
5.052                   0.798774      -0.0605667       0.00730292      -0.0240655      0.000145064     0.000352395
                      0.00727293      -0.0240847         0.791807       -0.054476      0.000252414     -0.00020083
                     0.000152489     0.000372274      0.000252278    -0.000200481         0.834498       0.0226054
5.053                   0.798398      -0.0607846        0.0071533      -0.0241583      0.000147696     0.000351316
                      0.00712245      -0.0241757         0.791517      -0.0546483      0.000247101    -0.000203993
                     0.000156161       0.0003706      0.000246986     -0.00020363         0.834755       0.0220498
5.054                   0.798016      -0.0610004       0.00700216      -0.0242516      0.000150332     0.000350317
                      0.00697056       -0.024267         0.791224      -0.0548197      0.000241753    -0.000206996
                     0.000159796     0.000368953       0.00024166    -0.000206619         0.835006       0.0214933
5.055                    0.79763      -0.0612141       0.00684944      -0.0243453      0.000152977     0.000349396
                       0.0068172      -0.0243588         0.790927        -0.05499      0.000236377    -0.000209837
                     0.000163396     0.000367336      0.000236307    -0.000209449         0.835251       0.0209362
5.056                    0.79724      -0.0614255       0.00669508      -0.0244394       0.00015564     0.000348555
                      0.00666233      -0.0244509         0.790627      -0.0551594      0.000230977    -0.000212518
                     0.000166965     0.000365752      0.000230931    -0.000212119         0.835489       0.0203784
5.057                   0.796844      -0.0616346       0.00653904      -0.0245338      0.000158324     0.000347791
                      0.00650587      -0.0245434         0.790323      -0.0553277      0.000225559    -0.000215037
                     0.000170508     0.000364203      0.000225539     -0.00021463         0.835721         0.01982
5.058                   0.796444      -0.0618413       0.00638126      -0.0246286      0.000161037     0.000347104
                      0.00634781      -0.0246362         0.790016      -0.0554949      0.000220129    -0.000217396
                     0.000174029      0.00036269      0.000220135    -0.000216982         0.835946        0.019261
5.059                    0.79604      -0.0620455       0.00622169      -0.0247237      0.000163785     0.000346493
                      0.00618806      -0.0247294         0.789705      -0.0556611      0.000214692    -0.000219595
                     0.000177531     0.000361215      0.000214724    -0.000219176         0.836165       0.0187015
5.06                     0.79563      -0.0622472       0.00606029      -0.0248191      0.000166574     0.000345955
                      0.00602658      -0.0248228          0.78939      -0.0558261      0.000209252    -0.000221635
                     0.000181021      0.00035978      0.000209311    -0.000221213         0.836378       0.0181415
5.061                   0.795216      -0.0624461       0.00589698      -0.0249147       0.00016941     0.000345489
                      0.00586332      -0.0249164         0.789072        -0.05599      0.000203815    -0.000223517
                     0.000184501     0.000358386      0.000203902    -0.000223093         0.836584        0.017581
5.062                   0.794797      -0.0626423       0.00573173      -0.0250104      0.000172298     0.000345092
                      0.00569822      -0.0250102          0.78875      -0.0561528      0.000198387    -0.000225241
                     0.000187978     0.000357034      0.000198502    -0.000224817         0.836784       0.0170202
5.063                   0.794373      -0.0628357       0.00556449      -0.0251064      0.000175244     0.000344761
                      0.00553124      -0.0251042         0.788425      -0.0563143      0.000192971     -0.00022681
                     0.000191455     0.000355724      0.000193116    -0.000226388         0.836977        0.016459
5.064                   0.793945      -0.0630261       0.00539521      -0.0252024      0.000178255     0.000344495
                      0.00536233      -0.0251984         0.788096      -0.0564746      0.000187575    -0.000228224
                     0.000194938     0.000354458      0.000187748    -0.000227806         0.837165       0.0158975
5.065                   0.793512      -0.0632135       0.00522383      -0.0252985      0.000181336     0.000344289
                      0.00519143      -0.0252926         0.787763      -0.0566336      0.000182202    -0.000229485
                     0.000198432     0.000353235      0.000182403    -0.000229073         0.837346       0.0153358
5.066                   0.793075      -0.0633978       0.00505032      -0.0253946      0.000184492      0.00034414
                      0.00501849      -0.0253869         0.787427      -0.0567913      0.000176857    -0.000230595
                     0.000201941     0.000352054      0.000177086    -0.000230191         0.837521       0.0147738
5.067                   0.792632      -0.0635789       0.00487462      -0.0254907      0.000187728     0.000344045
                      0.00484348      -0.0254813         0.787087      -0.0569477      0.000171546    -0.000231556
                     0.000205471     0.000350917      0.000171803    -0.000231162          0.83769       0.0142117
5.068                   0.792185      -0.0637568        0.0046967      -0.0255867      0.000191051        0.000344
                      0.00466633      -0.0255755         0.786743      -0.0571027      0.000166272     -0.00023237
                     0.000209028     0.000349822      0.000166557    -0.000231988         0.837853       0.0136494
5.069                   0.791734      -0.0639312        0.0045165      -0.0256826      0.000194464        0.000344
                      0.00448698      -0.0256698         0.786396      -0.0572563      0.000161041     -0.00023304
                     0.000212615     0.000348768      0.000161353    -0.000232671          0.83801        0.013087
5.07                    0.791277      -0.0641021       0.00433398      -0.0257783      0.000197974      0.00034404
                      0.00430542      -0.0257638         0.786045      -0.0574085      0.000155857    -0.000233567
                     0.000216239     0.000347754      0.000156196    -0.000233214          0.83816       0.0125245
5.071                   0.790817      -0.0642695       0.00414911      -0.0258737      0.000201584     0.000344117
                      0.00412158      -0.0258578          0.78569      -0.0575592      0.000150725    -0.000233955
                     0.000219905     0.000346778      0.000151089     -0.00023362         0.838305       0.0119621
5.072                   0.790351      -0.0644332       0.00396183      -0.0259689      0.000205299     0.000344225
                      0.00393541      -0.0259514         0.785331      -0.0577083      0.000145648    -0.000234206
                     0.000223617     0.000345839      0.000146037     -0.00023389         0.838443       0.0113996
5.073                   0.789881      -0.0645931       0.00377211      -0.0260636      0.000209124     0.000344358
                      0.00374688      -0.0260448         0.784968      -0.0578559      0.000140632    -0.000234324
                     0.000227381     0.000344935      0.000141045    -0.000234029         0.838576       0.0108373
5.074                   0.789406      -0.0647492        0.0035799       -0.026158      0.000213063     0.000344512
                      0.00355594      -0.0261379         0.784602      -0.0580019       0.00013568     -0.00023431
                     0.000231202     0.000344063      0.000136115    -0.000234038         0.838703        0.010275
5.075                   0.788927      -0.0649014       0.00338518      -0.0262519      0.000217119     0.000344681
                      0.00336255      -0.0262305         0.784231      -0.0581462      0.000130796    -0.000234169
                     0.000235085      0.00034322      0.000131252    -0.000233922         0.838823      0.00971289
5.076                   0.788444      -0.0650495       0.00318791      -0.0263452      0.000221297     0.000344858
                      0.00316666      -0.0263227         0.783857      -0.0582888      0.000125985    -0.000233904
                     0.000239035     0.000342403       0.00012646    -0.000233683         0.838938      0.00915096
5.077                   0.787956      -0.0651934       0.00298805       -0.026438      0.000225599     0.000345038
                      0.00296826      -0.0264144         0.783479      -0.0584297      0.000121249    -0.000233518
                     0.000243056      0.00034161      0.000121743    -0.000233324         0.839047      0.00858926
5.078                   0.787463      -0.0653331       0.00278558        -0.02653      0.000230029     0.000345215
                      0.00276727      -0.0265055         0.783097      -0.0585687      0.000116593    -0.000233015
                     0.000247154     0.000340837      0.000117103     -0.00023285          0.83915      0.00802781
5.079                   0.786966      -0.0654684       0.00258044      -0.0266213       0.00023459     0.000345381
                      0.00256367      -0.0265959         0.782711      -0.0587059      0.000112019    -0.000232399
                     0.000251333     0.000340079      0.000112544    -0.000232264         0.839248      0.00746667
5.08                    0.786465      -0.0655993       0.00237262      -0.0267118      0.000239285      0.00034553
                      0.00235743      -0.0266856          0.78232      -0.0588412      0.000107532    -0.000231672
                     0.000255597     0.000339332       0.00010807    -0.000231569         0.839339      0.00690587
5.081                   0.785959      -0.0657257        0.0021621      -0.0268014      0.000244115     0.000345656
                      0.00214853      -0.0267745         0.781926      -0.0589746      0.000103134     -0.00023084
                     0.000259951     0.000338593      0.000103682     -0.00023077         0.839425      0.00634545
5.082                   0.785449      -0.0658474       0.00194884        -0.02689      0.000249084     0.000345752
                      0.00193691      -0.0268625         0.781528      -0.0591059      9.88278e-05    -0.000229907
                     0.000264398     0.000337856      9.93857e-05    -0.000229869         0.839505      0.00578545
5.083                   0.784935      -0.0659644       0.00173282      -0.0269776      0.000254192     0.000345809
                      0.00172256      -0.0269496         0.781125      -0.0592351      9.46172e-05    -0.000228875
                     0.000268944     0.000337117      9.51818e-05    -0.000228872          0.83958      0.00522589
5.084                   0.784417      -0.0660765       0.00151403      -0.0270641      0.000259442     0.000345821
                      0.00150544      -0.0270357         0.780719      -0.0593622      9.05043e-05     -0.00022775
                     0.000273591      0.00033637      9.10737e-05    -0.000227783         0.839648      0.00466683
5.085                   0.783894      -0.0661838       0.00129242      -0.0271494      0.000264834     0.000345781