! TOUCHSTONE file generated by CST MICROWAVE STUDIO
! Date and time: Tue Sep 29 10:20:05 2020
! Project name: Katja Lung Lower Right.cst
! Header version: 2018
! Port assignment regex: !\s*Touchstone port\s*([0-9]+)\s*=\s*(CST MWS port|CST DS port)\s*([0-9]+|Zmin|Zmax)\s*\(\"(.*)\"\)(\s*mode\s*([0-9]+))?.*
! Touchstone port assignment:
! Touchstone port 1 = CST MWS port 1 ("")
! Touchstone port 2 = CST MWS port 2 ("")
! Touchstone port 3 = CST MWS port 3 ("")
# GHz S RI R 50
5                       0.806385      -0.0580903        0.0172973      -0.0110994      0.000245628    -0.000256675
                       0.0172982      -0.0110754          0.78989      -0.0598863       0.00102243    -1.07714e-05
                     0.000244915    -0.000256482       0.00103723    -5.06202e-06         0.828092        0.039642
5.001                   0.806142      -0.0582521        0.0172879      -0.0112465      0.000237484    -0.000259838
                       0.0172901      -0.0112228         0.789628      -0.0599345       0.00101991    -2.68285e-05
                     0.000236788    -0.000259604       0.00103485    -2.19692e-05         0.828609       0.0391182
5.002                   0.805896      -0.0584139        0.0172776       -0.011395      0.000229311    -0.000262741
                        0.017281      -0.0113716         0.789365      -0.0599823       0.00101712    -4.28167e-05
                     0.000228634    -0.000262467       0.00103215     -3.8805e-05         0.829118       0.0385912
5.003                   0.805647      -0.0585757        0.0172663      -0.0115449      0.000221118    -0.000265383
                        0.017271      -0.0115219           0.7891      -0.0600299       0.00101407    -5.87306e-05
                     0.000220463    -0.000265071       0.00102914    -5.55617e-05         0.829619        0.038061
5.004                   0.805397      -0.0587373        0.0172541      -0.0116961      0.000212916    -0.000267765
                         0.01726      -0.0116736         0.788833      -0.0600771       0.00101075    -7.45648e-05
                     0.000212284    -0.000267417       0.00102583    -7.22315e-05         0.830112       0.0375277
5.005                   0.805144      -0.0588989         0.017241      -0.0118488      0.000204712     -0.00026989
                        0.017248      -0.0118268         0.788564       -0.060124       0.00100716    -9.03137e-05
                     0.000204106    -0.000269506        0.0010222    -8.88067e-05         0.830597       0.0369915
5.006                   0.804889      -0.0590604        0.0172268      -0.0120029      0.000196515    -0.000271758
                        0.017235      -0.0119815         0.788294      -0.0601706       0.00100331    -0.000105972
                     0.000195938    -0.000271341       0.00101826    -0.000105279         0.831074       0.0364524
5.007                   0.804632      -0.0592217        0.0172115      -0.0121584      0.000188335    -0.000273371
                       0.0172208      -0.0121377         0.788022      -0.0602168      0.000999199    -0.000121533
                     0.000187787    -0.000272923       0.00101402    -0.000121642         0.831543       0.0359106
5.008                   0.804372       -0.059383        0.0171952      -0.0123153       0.00018018    -0.000274732
                       0.0172055      -0.0122953         0.787749      -0.0602626      0.000994823    -0.000136993
                     0.000179662    -0.000274254       0.00100948    -0.000137887         0.832004       0.0353661
5.009                    0.80411       -0.059544        0.0171778      -0.0124737      0.000172058    -0.000275843
                       0.0171891      -0.0124544         0.787473       -0.060308      0.000990187    -0.000152344
                     0.000171573    -0.000275337       0.00100464    -0.000154007         0.832458        0.034819
5.01                    0.803846       -0.059705        0.0171592      -0.0126335      0.000163977    -0.000276707
                       0.0171714      -0.0126149         0.787196       -0.060353      0.000985292    -0.000167582
                     0.000163527    -0.000276176      0.000999498    -0.000169993         0.832903       0.0342694
5.011                   0.803579      -0.0598658        0.0171394      -0.0127946      0.000155947    -0.000277327
                       0.0171525      -0.0127769         0.786917      -0.0603976      0.000980139    -0.000182701
                     0.000155531    -0.000276773      0.000994065     -0.00018584         0.833341       0.0337174
5.012                    0.80331      -0.0600264        0.0171184      -0.0129573      0.000147974    -0.000277707
                       0.0171324      -0.0129404         0.786636      -0.0604417      0.000974732    -0.000197694
                     0.000147595    -0.000277132      0.000988341    -0.000201538         0.833771        0.033163
5.013                   0.803038      -0.0601868        0.0170961      -0.0131213      0.000140066    -0.000277851
                       0.0171109      -0.0131054         0.786354      -0.0604854      0.000969072    -0.000212557
                     0.000139724    -0.000277257      0.000982332    -0.000217082         0.834193       0.0326064
5.014                   0.802764       -0.060347        0.0170726      -0.0132868      0.000132232    -0.000277761
                       0.0170881      -0.0132718          0.78607      -0.0605285      0.000963162    -0.000227283
                     0.000131928    -0.000277151      0.000976041    -0.000232463         0.834608       0.0320476
5.015                   0.802487       -0.060507        0.0170477      -0.0134537      0.000124478    -0.000277444
                       0.0170639      -0.0134397         0.785784      -0.0605712      0.000957005    -0.000241868
                     0.000124213     -0.00027682      0.000969473    -0.000247676         0.835015       0.0314867
5.016                   0.802207      -0.0606668        0.0170215       -0.013622      0.000116811    -0.000276903
                       0.0170383       -0.013609         0.785496      -0.0606133      0.000950603    -0.000256304
                     0.000116586    -0.000276267      0.000962631    -0.000262712         0.835414       0.0309238
5.017                   0.801926      -0.0608263        0.0169939      -0.0137918      0.000109239    -0.000276143
                       0.0170112      -0.0137798         0.785206      -0.0606549       0.00094396    -0.000270587
                     0.000109054    -0.000275498      0.000955522    -0.000277565         0.835806       0.0303589
5.018                   0.801641      -0.0609855        0.0169648       -0.013963      0.000101768    -0.000275169
                       0.0169826       -0.013952         0.784915      -0.0606959      0.000937078    -0.000284711
                     0.000101624    -0.000274518       0.00094815    -0.000292229         0.836191       0.0297922
5.019                   0.801354      -0.0611444        0.0169342      -0.0141356      9.44048e-05    -0.000273987
                       0.0169525      -0.0141257         0.784621      -0.0607364      0.000929962    -0.000298671
                     9.43008e-05    -0.000273331       0.00094052    -0.000306697         0.836568       0.0292237
5.02                    0.801064      -0.0613029        0.0169021      -0.0143096      8.71553e-05    -0.000272602
                       0.0169208      -0.0143008         0.784326      -0.0607762      0.000922616    -0.000312461
                     8.70916e-05    -0.000271944      0.000932638    -0.000320963         0.836938       0.0286535
5.021                   0.800772      -0.0614612        0.0168685      -0.0144851      8.00255e-05    -0.000271019
                       0.0168875      -0.0144774         0.784029      -0.0608155      0.000915042    -0.000326075
                     8.00021e-05    -0.000270362       0.00092451     -0.00033502           0.8373       0.0280816
5.022                   0.800476      -0.0616191        0.0168333       -0.014662      7.30209e-05    -0.000269244
                       0.0168525      -0.0146554         0.783729      -0.0608541      0.000907245    -0.000339509
                     7.30375e-05    -0.000268591      0.000916142    -0.000348864         0.837655       0.0275081
5.023                   0.800178      -0.0617765        0.0167964      -0.0148403      6.61471e-05    -0.000267284
                       0.0168158      -0.0148348         0.783428       -0.060892       0.00089923    -0.000352758
                     6.62033e-05    -0.000266636      0.000907539    -0.000362488         0.838003       0.0269331
5.024                   0.799878      -0.0619336        0.0167579        -0.01502      5.94092e-05    -0.000265144
                       0.0167774      -0.0150156         0.783126      -0.0609293      0.000891001    -0.000365816
                     5.95044e-05    -0.000264504       0.00089871    -0.000375886         0.838343       0.0263567
5.025                   0.799574      -0.0620902        0.0167176      -0.0152011      5.28119e-05    -0.000262832
                       0.0167372      -0.0151978         0.782821      -0.0609659      0.000882562    -0.000378678
                     5.29454e-05    -0.000262201      0.000889659    -0.000389054         0.838677       0.0257789
5.026                   0.799268      -0.0622464        0.0166756      -0.0153837      4.63598e-05    -0.000260352
                       0.0166952      -0.0153814         0.782514      -0.0610018      0.000873918     -0.00039134
                     4.65307e-05    -0.000259734      0.000880394    -0.000401987         0.839003       0.0251998
5.027                   0.798959       -0.062402        0.0166318      -0.0155676      4.00571e-05    -0.000257712
                       0.0166514      -0.0155664         0.782205      -0.0610369      0.000865075    -0.000403797
                     4.02645e-05    -0.000257109      0.000870921    -0.000414679         0.839322       0.0246194
5.028                   0.798646      -0.0625571        0.0165861      -0.0157529      3.39079e-05    -0.000254919
                       0.0166056      -0.0157528         0.781894      -0.0610713      0.000856038    -0.000416045
                     3.41506e-05    -0.000254332      0.000861249    -0.000427127         0.839634       0.0240378
5.029                   0.798331      -0.0627117        0.0165386      -0.0159396      2.79158e-05    -0.000251979
                       0.0165579      -0.0159406         0.781581      -0.0611049      0.000846812    -0.000428078
                     2.81927e-05    -0.000251411      0.000851384    -0.000439325         0.839939       0.0234551
5.03                    0.798013      -0.0628656        0.0164891      -0.0161277      2.20842e-05    -0.000248899
                       0.0165082      -0.0161297         0.781267      -0.0611377      0.000837402    -0.000439894
                     2.23938e-05    -0.000248352      0.000841333     -0.00045127         0.840237       0.0228714
5.031                   0.797692       -0.063019        0.0164377      -0.0163171      1.64161e-05    -0.000245686
                       0.0164564      -0.0163201          0.78095      -0.0611697      0.000827815    -0.000451487
                     1.67571e-05    -0.000245161      0.000831104    -0.000462959         0.840528       0.0222866
5.032                   0.797368      -0.0631717        0.0163842      -0.0165079      1.09143e-05    -0.000242347
                       0.0164027      -0.0165119         0.780631      -0.0612008      0.000818055    -0.000462855
                     1.12851e-05    -0.000241846      0.000820704    -0.000474386         0.840812       0.0217008
5.033                   0.797041      -0.0633236        0.0163286         -0.0167      5.58141e-06    -0.000238888
                       0.0163467       -0.016705          0.78031      -0.0612312       0.00080813    -0.000473992
                     5.98048e-06    -0.000238414      0.000810142     -0.00048555         0.841089       0.0211142
5.034                   0.796711      -0.0634749         0.016271      -0.0168935      4.19562e-07    -0.000235318
                       0.0162887      -0.0168994         0.779987      -0.0612606      0.000798045    -0.000484896
                     8.45077e-07     -0.00023487      0.000799425    -0.000496447          0.84136       0.0205267
5.035                   0.796378      -0.0636254        0.0162112      -0.0170882      -4.5693e-06    -0.000231642
                       0.0162284      -0.0170951         0.779662      -0.0612891      0.000787807    -0.000495564
                    -4.11909e-06    -0.000231224      0.000788562    -0.000507075         0.841624       0.0199384
5.036                   0.796041       -0.063775        0.0161491      -0.0172843      -9.3836e-06    -0.000227868
                       0.0161658       -0.017292         0.779335      -0.0613167      0.000777421    -0.000505992
                    -8.91065e-06     -0.00022748      0.000777559    -0.000517431         0.841881       0.0193494
5.037                   0.795702      -0.0639239        0.0160849      -0.0174817     -1.40221e-05    -0.000224003
                        0.016101      -0.0174903         0.779005      -0.0613433      0.000766895    -0.000516178
                    -1.35283e-05    -0.000223646      0.000766426    -0.000527513         0.842131       0.0187597
5.038                   0.795359      -0.0640718        0.0160183      -0.0176803     -1.84835e-05    -0.000220054
                       0.0160338      -0.0176897         0.778674       -0.061369      0.000756235    -0.000526118
                    -1.79709e-05     -0.00021973       0.00075517    -0.000537319         0.842375       0.0181693
5.039                   0.795013      -0.0642188        0.0159494      -0.0178802     -2.27673e-05    -0.000216028
                       0.0159643      -0.0178904         0.778341      -0.0613937      0.000745447    -0.000535811
                    -2.22379e-05    -0.000215737        0.0007438    -0.000546848         0.842612       0.0175784
5.04                    0.794664      -0.0643648        0.0158781      -0.0180814     -2.68726e-05    -0.000211931
                       0.0158923      -0.0180922         0.778005      -0.0614173      0.000734539    -0.000545254
                    -2.63288e-05    -0.000211674      0.000732323    -0.000556098         0.842842       0.0169869
5.041                   0.794311      -0.0645098        0.0158043      -0.0182837     -3.07996e-05     -0.00020777
                       0.0158178      -0.0182953         0.777667      -0.0614399      0.000723518    -0.000554445
                    -3.02433e-05    -0.000207549      0.000720749    -0.000565068         0.843066        0.016395
5.042                   0.793955      -0.0646537        0.0157281      -0.0184873      -3.4548e-05    -0.000203553
                       0.0157408      -0.0184995         0.777327      -0.0614615      0.000712389    -0.000563382
                    -3.39817e-05    -0.000203367      0.000709085    -0.000573757         0.843284       0.0158026
5.043                   0.793596      -0.0647965        0.0156493       -0.018692     -3.81183e-05    -0.000199286
                       0.0156613      -0.0187048         0.776984      -0.0614819      0.000701162    -0.000572064
                    -3.75439e-05    -0.000199136      0.000697339    -0.000582166         0.843495       0.0152097
5.044                   0.793233      -0.0649381        0.0155679      -0.0188979     -4.15111e-05    -0.000194976
                       0.0155791      -0.0189113          0.77664      -0.0615013      0.000689841     -0.00058049
                    -4.09309e-05    -0.000194862       0.00068552    -0.000590294         0.843699       0.0146166
5.045                   0.792867      -0.0650785        0.0154839      -0.0191049     -4.47269e-05    -0.000190628
                       0.0154942      -0.0191188         0.776293      -0.0615194      0.000678436    -0.000588657
                    -4.41432e-05    -0.000190551      0.000673635    -0.000598141         0.843898       0.0140231
5.046                   0.792498      -0.0652176        0.0153972      -0.0193131     -4.77669e-05     -0.00018625
                       0.0154067      -0.0193274         0.775944      -0.0615364      0.000666952    -0.000596567
                     -4.7182e-05    -0.000186209      0.000661694    -0.000605708         0.844089       0.0134294
5.047                   0.792125      -0.0653554        0.0153077      -0.0195223     -5.06324e-05    -0.000181847
                       0.0153164       -0.019537         0.775593      -0.0615522      0.000655397    -0.000604217
                    -5.00486e-05    -0.000181843      0.000649704    -0.000612995         0.844275       0.0128354
5.048                   0.791749      -0.0654918        0.0152154      -0.0197326     -5.33249e-05    -0.000177426
                       0.0152232      -0.0197476         0.775239      -0.0615668      0.000643778    -0.000611608
                    -5.27441e-05    -0.000177458      0.000637673    -0.000620003         0.844455       0.0122412
5.049                   0.791369      -0.0656267        0.0151203      -0.0199439      -5.5846e-05    -0.000172993
                       0.0151273      -0.0199592         0.774883      -0.0615801      0.000632103     -0.00061874
                    -5.52707e-05     -0.00017306       0.00062561    -0.000626734         0.844628       0.0116469
5.05                    0.790986      -0.0657602        0.0150224      -0.0201562     -5.81976e-05    -0.000168554
                       0.0150284      -0.0201718         0.774525      -0.0615921      0.000620378    -0.000625613
                    -5.76298e-05    -0.000168656      0.000613521     -0.00063319         0.844795       0.0110525
5.051                   0.790599      -0.0658921        0.0149214      -0.0203694     -6.03819e-05    -0.000164114
                       0.0149266      -0.0203852         0.774164      -0.0616028      0.000608611    -0.000632227
                    -5.98237e-05    -0.000164251      0.000601415    -0.000639371         0.844956        0.010458
5.052                   0.790208      -0.0660224        0.0148175      -0.0205836     -6.24011e-05    -0.000159679
                       0.0148217      -0.0205996         0.773801      -0.0616121      0.000596809    -0.000638582
                    -6.18547e-05    -0.000159849        0.0005893     -0.00064528          0.84511      0.00986348
5.053                   0.789814       -0.066151        0.0147105      -0.0207987     -6.42578e-05    -0.000155254
                       0.0147138      -0.0208147         0.773436      -0.0616201      0.000584978    -0.000644681
                    -6.37251e-05    -0.000155457      0.000577183    -0.000650921         0.845259      0.00926897
5.054                   0.789417      -0.0662778        0.0146004      -0.0210146     -6.59545e-05    -0.000150844
                       0.0146028      -0.0210307         0.773068      -0.0616266      0.000573127    -0.000650524
                    -6.54374e-05    -0.000151079      0.000565072    -0.000656294         0.845402       0.0086745
5.055                   0.789015      -0.0664029        0.0144872      -0.0212313     -6.74941e-05    -0.000146455
                       0.0144887      -0.0212475         0.772698      -0.0616317      0.000561263    -0.000656112
                    -6.69946e-05    -0.000146721      0.000552974    -0.000661404         0.845539       0.0080801
5.056                    0.78861      -0.0665261        0.0143707      -0.0214489     -6.88795e-05    -0.000142091
                       0.0143714       -0.021465         0.772325      -0.0616353      0.000549391    -0.000661447
                    -6.83994e-05    -0.000142386      0.000540896    -0.000666253         0.845669      0.00748581
5.057                   0.788202      -0.0666473        0.0142511      -0.0216672      -7.0114e-05    -0.000137757
                       0.0142508      -0.0216832          0.77195      -0.0616374      0.000537519    -0.000666531
                    -6.96549e-05    -0.000138081      0.000528845    -0.000670844         0.845794      0.00689166
5.058                    0.78779      -0.0667665        0.0141281      -0.0218861     -7.12005e-05    -0.000133458
                       0.0141269       -0.021902         0.771572      -0.0616379      0.000525654    -0.000671367
                    -7.07641e-05    -0.000133808      0.000516828    -0.000675182         0.845913      0.00629768
5.059                   0.787374      -0.0668837        0.0140017      -0.0221058     -7.21426e-05    -0.000129197
                       0.0139997      -0.0221215         0.771192      -0.0616368      0.000513802    -0.000675956
                    -7.17305e-05    -0.000129572      0.000504853    -0.000679269         0.846027      0.00570392
5.06                    0.786954      -0.0669987         0.013872       -0.022326     -7.29437e-05    -0.000124979
                       0.0138692      -0.0223415         0.770809      -0.0616341      0.000501971    -0.000680302
                    -7.25572e-05    -0.000125378      0.000492924    -0.000683112         0.846134      0.00511038
5.061                   0.786531      -0.0671115        0.0137388      -0.0225468     -7.36073e-05    -0.000120808
                       0.0137351       -0.022562         0.770424      -0.0616297      0.000490166    -0.000684407
                    -7.32479e-05    -0.000121228      0.000481049    -0.000686712         0.846236      0.00451712
5.062                   0.786104       -0.067222        0.0136021      -0.0227682     -7.41373e-05    -0.000116686
                       0.0135976       -0.022783         0.770036      -0.0616236      0.000478393    -0.000688274
                     -7.3806e-05    -0.000117127      0.000469234    -0.000690076         0.846331      0.00392415
5.063                   0.785673      -0.0673302        0.0134618        -0.02299     -7.45371e-05    -0.000112619
                       0.0134566      -0.0230045         0.769646      -0.0616157       0.00046666    -0.000691906
                    -7.42353e-05    -0.000113078      0.000457484    -0.000693207         0.846422      0.00333151
5.064                   0.785239      -0.0674359         0.013318      -0.0232122     -7.48109e-05    -0.000108609
                        0.013312      -0.0232263         0.769253      -0.0616061      0.000454972    -0.000695308
                    -7.45392e-05    -0.000109084      0.000445807    -0.000696111         0.846506      0.00273922
5.065                   0.784801      -0.0675391        0.0131704      -0.0234347     -7.49622e-05    -0.000104659
                       0.0131637      -0.0234484         0.768857      -0.0615946      0.000443336    -0.000698482
                    -7.47218e-05    -0.000105149      0.000434206    -0.000698792         0.846585      0.00214731
5.066                   0.784359      -0.0676397        0.0130192      -0.0236576     -7.49952e-05    -0.000100772
                       0.0130118      -0.0236708         0.768459      -0.0615812      0.000431755    -0.000701433
                    -7.47866e-05    -0.000101274      0.000422687    -0.000701256         0.846658      0.00155581
5.067                   0.783913      -0.0677377        0.0128643      -0.0238807     -7.49137e-05    -9.69502e-05
                       0.0128562      -0.0238934         0.768058      -0.0615659      0.000420237    -0.000704165
                    -7.47376e-05    -9.74626e-05      0.000411255    -0.000703509         0.846726     0.000964737
5.068                   0.783464      -0.0678329        0.0127055       -0.024104     -7.47217e-05    -9.31968e-05
                       0.0126968      -0.0241162         0.767654      -0.0615487      0.000408787    -0.000706682
                    -7.45786e-05    -9.37174e-05      0.000399917    -0.000705555         0.846788     0.000374125
5.069                   0.783011      -0.0679253        0.0125429      -0.0243275     -7.44232e-05    -8.95137e-05
                       0.0125336      -0.0243391         0.767247      -0.0615294       0.00039741    -0.000708989
                    -7.43135e-05    -9.00405e-05      0.000388674    -0.000707401         0.846845    -0.000216003
5.07                    0.782554      -0.0680148        0.0123764       -0.024551     -7.40224e-05     -8.5903e-05
                       0.0123665       -0.024562         0.766838       -0.061508      0.000386111     -0.00071109
                    -7.39463e-05    -8.64338e-05      0.000377532    -0.000709052         0.846896    -0.000805624
5.071                   0.782094      -0.0681013         0.012206      -0.0247745     -7.35231e-05    -8.23665e-05
                       0.0121956      -0.0247849         0.766426      -0.0614845      0.000374895    -0.000712991
                    -7.34807e-05    -8.28992e-05      0.000366496    -0.000710514         0.846942     -0.00139472
5.072                   0.781629      -0.0681848        0.0120316       -0.024998     -7.29294e-05    -7.89059e-05
                       0.0120207      -0.0250077         0.766012      -0.0614589      0.000363766    -0.000714695
                    -7.29206e-05    -7.94385e-05      0.000355568    -0.000711793         0.846983     -0.00198325
5.073                   0.781161      -0.0682651        0.0118532      -0.0252213     -7.22453e-05    -7.55227e-05
                       0.0118418      -0.0252304         0.765594       -0.061431      0.000352729    -0.000716209
                      -7.227e-05     -7.6053e-05      0.000344753    -0.000712896         0.847018     -0.00257121
5.074                    0.78069      -0.0683421        0.0116707      -0.0254444     -7.14748e-05    -7.22181e-05
                        0.011659      -0.0254528         0.765174      -0.0614008      0.000341788    -0.000717538
                    -7.15327e-05    -7.27441e-05      0.000334054    -0.000713828         0.847047     -0.00315858
5.075                   0.780214      -0.0684159        0.0114842      -0.0256673     -7.06218e-05    -6.89932e-05
                        0.011472      -0.0256749         0.764751      -0.0613683      0.000330947    -0.000718687
                    -7.07124e-05    -6.95129e-05      0.000323473    -0.000714597         0.847072     -0.00374533
5.076                   0.779735      -0.0684863        0.0112935      -0.0258898     -6.96901e-05    -6.58491e-05
                        0.011281      -0.0258968         0.764325      -0.0613334       0.00032021    -0.000719661
                    -6.98129e-05    -6.63603e-05      0.000313014    -0.000715208         0.847091     -0.00433144
5.077                   0.779252      -0.0685532        0.0110985      -0.0261119     -6.86837e-05    -6.27863e-05
                       0.0110858      -0.0261181         0.763897       -0.061296       0.00030958    -0.000720467
                     -6.8838e-05    -6.32872e-05      0.000302679    -0.000715667         0.847105     -0.00491688
5.078                   0.778766      -0.0686165        0.0108994      -0.0263335     -6.76063e-05    -5.98055e-05
                       0.0108864       -0.026339         0.763465      -0.0612561       0.00029906    -0.000721109
                    -6.77913e-05    -6.02941e-05       0.00029247    -0.000715982         0.847113     -0.00550165
5.079                   0.778276      -0.0686762         0.010696      -0.0265546     -6.64615e-05    -5.69072e-05
                       0.0106828      -0.0265593          0.76303      -0.0612136      0.000288654    -0.000721595
                    -6.66764e-05    -5.73815e-05       0.00028239    -0.000716158         0.847117     -0.00608573
5.08                    0.777783      -0.0687322        0.0104884       -0.026775      -6.5253e-05    -5.40915e-05
                        0.010475       -0.026779         0.762593      -0.0611686      0.000278364    -0.000721929
                    -6.54967e-05    -5.45499e-05      0.000272439    -0.000716203         0.847115     -0.00666908
5.081                   0.777285      -0.0687843        0.0102764      -0.0269947     -6.39845e-05    -5.13586e-05
                       0.0102628      -0.0269979         0.762153      -0.0611208      0.000268193    -0.000722118
                    -6.42559e-05    -5.17993e-05       0.00026262    -0.000716123         0.847108     -0.00725171
5.082                   0.776785      -0.0688325          0.01006      -0.0272136     -6.26593e-05    -4.87085e-05
                       0.0100464       -0.027216          0.76171      -0.0610702      0.000258142    -0.000722168
                    -6.29571e-05    -4.91297e-05      0.000252933    -0.000715924         0.847096     -0.00783358
5.083                    0.77628      -0.0688768       0.00983927      -0.0274316     -6.12809e-05    -4.61409e-05
                      0.00982561      -0.0274332         0.761263      -0.0610168      0.000248215    -0.000722085
                    -6.16037e-05    -4.65412e-05      0.000243378    -0.000715614         0.847079     -0.00841468
5.084                   0.775772      -0.0689169       0.00961409      -0.0276486     -5.98524e-05    -4.36556e-05
                      0.00960044      -0.0276494         0.760814      -0.0609605      0.000238412    -0.000721876
                    -6.01989e-05    -4.40335e-05      0.000233958    -0.000715197         0.847057       -0.008995
5.085                   0.775261      -0.0689529       0.00938446      -0.0278645     -5.83771e-05    -4.12522e-05